LAMMPS (24 Dec 2020)
OMP_NUM_THREADS environment is not set. Defaulting to 1 thread. (src/comm.cpp:94)
  using 1 OpenMP thread(s) per MPI task
units metal
boundary m m m
atom_style full
read_data data.SiO2
Reading data file ...
  orthogonal box = (19.406984 62.530346 16.102798) to (75.327880 104.04620 62.111134)
  2 by 1 by 2 MPI processor grid
  reading atoms ...
WARNING: Non-zero imageflag(s) in x direction for non-periodic boundary reset to zero (src/atom.cpp:1174)
  990 atoms
  reading velocities ...
  990 velocities
Finding 1-2 1-3 1-4 neighbors ...
  special bond factors lj:    0        0        0       
  special bond factors coul:  0        0        0       
     0 = max # of 1-2 neighbors
     0 = max # of 1-3 neighbors
     0 = max # of 1-4 neighbors
     1 = max # of special neighbors
  special bonds CPU = 0.000 seconds
  read_data CPU = 0.012 seconds
group 2 type 1
325 atoms in group 2
group 3 type 2
665 atoms in group 3
group 4 type 1 2
990 atoms in group 4
dump 1 4 atom 100 dump.si
compute 1 3 pe/atom
compute 2 3 ke/atom
compute 3 2 pe/atom
compute 4 2 ke/atom
compute ape_O 3 reduce ave c_1
compute ake_O 3 reduce ave c_2
compute ape_Si 2 reduce ave c_3
compute ake_Si 2 reduce ave c_4
thermo 100
thermo_style custom step temp press vol density etotal c_ape_O c_ake_O c_ape_Si c_ake_Si
pair_style vashishta
pair_coeff * * SiO.Vashishta Si O
Reading vashishta potential file SiO.Vashishta with DATE: 2015-10-14
set type 2 charge -2.0
Setting atom values ...
  665 settings made for charge
fix 1 4 nve
fix 2 2 wall/morse ylo EDGE 200 0.04 1.5 20.0 xlo EDGE 30 0.2 0.4 1.5 zlo EDGE 30 0.2 0.4 1.5 zhi EDGE 30 0.2 0.4 1.5 xhi EDGE 30 0.2 0.4 1.5
velocity 4 zero linear
velocity 4 zero angular
velocity 2 create 850 46545434
velocity 2 scale 850
timestep 0.0001
run 250000
WARNING: More than one compute ke/atom (src/compute_ke_atom.cpp:55)
WARNING: More than one compute ke/atom (src/compute_ke_atom.cpp:55)
Neighbor list info ...
  update every 1 steps, delay 10 steps, check yes
  max neighbors/atom: 2000, page size: 100000
  master list distance cutoff = 7.5
  ghost atom cutoff = 7.5
  binsize = 3.75, bins = 15 12 13
  1 neighbor lists, perpetual/occasional/extra = 1 0 0
  (1) pair vashishta, perpetual
      attributes: full, newton on
      pair build: full/bin
      stencil: full/bin/3d
      bin: standard
Per MPI rank memory allocation (min/avg/max) = 7.153 | 7.154 | 7.154 Mbytes
Step Temp Press Volume Density TotEng c_ape_O c_ake_O c_ape_Si c_ake_Si 
       0    849.98733    44.669634    106813.14   0.30730787    -1173.825  -0.80682758   0.10986869   -2.2952172   0.10953306 
     100    828.61326    268.05787    106813.14   0.30730787   -1173.4342  -0.80483436   0.10741904   -2.2896856   0.10613796 
     200    867.18659    188.84316    106813.14   0.30730787   -1172.3072  -0.80859137    0.1112226   -2.2937032   0.11352804 
     300    889.59618    279.73036    106813.14   0.30730787   -1170.5344  -0.80979152   0.11380811   -2.2946077   0.11705248 
     400    894.83428    413.19235    106813.14   0.30730787   -1168.2871  -0.80905822   0.11468226   -2.2912539   0.11732424 
     500    916.44962    243.80796    106813.14   0.30730787   -1165.8158   -0.8101071   0.11763046   -2.2900061   0.11979412 
     600    915.63806    196.53003    106813.14   0.30730787   -1163.1157  -0.80768631   0.11639849   -2.2863319   0.12199569 
     700    932.74402    102.07446    106813.14   0.30730787   -1160.1632  -0.80633236   0.11704585   -2.2867465   0.12739971 
     800    963.75142    112.87113    106813.14   0.30730787   -1156.9221  -0.80579866   0.11854332   -2.2900626   0.13653237 
     900    1007.7366    89.888521    106813.14   0.30730787   -1153.1376  -0.80615075    0.1221989   -2.2949989   0.14635399 
    1000    1033.0491    263.09931    106813.14   0.30730787   -1148.9337  -0.80442705   0.12495619   -2.2955475   0.15066876 
    1100     1039.555    559.03764    106813.14   0.30730787   -1144.2968  -0.80181631   0.12427421   -2.2891811   0.15462329 
    1200    1081.1554     554.1433    106813.14   0.30730787   -1139.1837  -0.80412396   0.12987217   -2.2850902   0.15953246 
    1300    1120.0427    557.60518    106813.14   0.30730787   -1133.8058  -0.80664395   0.13506023   -2.2786829   0.16421318 
    1400     1178.334    466.37823    106813.14   0.30730787   -1128.0599  -0.80957881   0.14009725   -2.2779266   0.17683547 
    1500    1200.5044    757.35345    106813.14   0.30730787   -1121.7729  -0.80725171   0.13999498   -2.2720645   0.18576543 
    1600    1267.6226    541.81668    106813.14   0.30730787   -1115.1602  -0.80932298   0.15125736   -2.2738802   0.18912168 
    1700    1305.5187    541.51939    106813.14   0.30730787    -1108.411  -0.80730758   0.15850041   -2.2721437   0.18920768 
    1800    1356.1442     655.9564    106813.14   0.30730787   -1101.2482  -0.80519997   0.16342794   -2.2743305   0.19903868 
    1900    1418.8833     781.3459    106813.14   0.30730787   -1093.5326  -0.80386177   0.16967561   -2.2780065    0.2109333 
    2000    1482.2201    846.34425    106813.14   0.30730787   -1085.2415  -0.80325819   0.17105776   -2.2786439   0.23301864 
    2100    1551.4615    625.90458    106813.14   0.30730787   -1076.1658  -0.80545777   0.17236737    -2.273454   0.25757499 
    2200    1606.9583    462.18826    106813.14   0.30730787   -1066.4668   -0.8063728   0.17796006   -2.2635683   0.26796109 
    2300    1658.3723    679.70205    106813.14   0.30730787   -1056.4877   -0.8047968   0.18859104   -2.2563118    0.2664321 
    2400    1743.4135     982.3223    106813.14   0.30730787   -1046.4567    -0.804806   0.20494604   -2.2588791   0.26641807 
    2500    1862.5236    1286.6831    106813.14   0.30730787   -1036.3513   -0.8074153   0.22252968   -2.2692983   0.27729103 
    2600    1947.6017    1789.1729    106813.14   0.30730787   -1025.8836  -0.80651742    0.2307786   -2.2723924    0.2938778 
    2700    2020.4563    1921.9254    106813.14   0.30730787   -1014.7883  -0.80615826   0.23126586   -2.2676453   0.32153806 
    2800    2109.4364    1523.7506    106813.14   0.30730787   -1002.8068  -0.80880092   0.23093336   -2.2603719    0.3572186 
    2900    2184.9516    1347.7479    107137.99   0.30637607   -990.13913  -0.80904161   0.23654115   -2.2506059     0.375448 
    3000    2284.2046    1318.3722    107137.99   0.30637607   -977.13224  -0.80906128   0.24828431   -2.2495855    0.3904607 
    3100    2366.3505    1628.2697    107137.99   0.30637607   -963.87741   -0.8062305   0.26126293   -2.2469056    0.3962164 
    3200    2487.3757    1759.9224    108412.85    0.3027733   -950.57057  -0.80752238   0.28473459   -2.2509232   0.39579489 
    3300    2583.5109    2099.1312    108412.85    0.3027733   -937.06877  -0.80530067   0.29235473   -2.2517398   0.41801755 
    3400    2707.8695    2134.0617    108412.85    0.3027733   -922.81502  -0.80584475   0.29682493   -2.2556851   0.45778712 
    3500    2829.8505    2286.9428     109469.2   0.29985163   -907.76549  -0.80705158   0.30845124   -2.2548905   0.48197894 
    3600    2954.7536    2482.9358     109469.2   0.29985163   -892.30964  -0.80911994   0.32443549   -2.2522323   0.49840314 
    3700    3100.6325    2349.4605     109469.2   0.29985163    -876.6814   -0.8136253   0.34058593    -2.252308   0.52273812 
    3800    3181.4526    2630.8887    109562.62   0.29959595   -861.06207  -0.81098096    0.3496403   -2.2414498   0.53600199 
    3900    3291.9789    2683.1937    109562.62   0.29959595   -845.82262  -0.81006546   0.36318747   -2.2399078   0.55175775 
    4000    3435.7707    2758.9474    109562.62   0.29959595   -830.06646  -0.81115953   0.37384498   -2.2457489   0.58651115 
    4100    3556.9244    3312.3265    110140.16   0.29802498    -812.7328  -0.80784315   0.38354617   -2.2468561   0.61431665 
    4200    3699.0123    3707.1913    110140.16   0.29802498   -794.92374  -0.80588453   0.40150468   -2.2519567   0.63346083 
    4300    3839.9499    3918.3899    110643.78   0.29666845   -777.10397  -0.80489761   0.42066969   -2.2545836    0.6496839 
    4400    3961.5361    4176.7805    110643.78   0.29666845   -759.75615  -0.80401188   0.43635641   -2.2508437   0.66541218 
    4500    4090.2876    4174.8793    110643.78   0.29666845   -742.94804  -0.80558194   0.44932119   -2.2465581   0.68952849 
    4600    4212.2752    4157.0673    110691.27   0.29654115   -726.36478  -0.80637507   0.45947761   -2.2418935   0.71673052 
    4700    4358.4909    4104.4183    110691.27   0.29654115   -709.03009  -0.80817706   0.47101182   -2.2423826   0.75064348 
    4800    4454.8482    4465.2543    110601.49   0.29678188    -690.4484  -0.80358734   0.47713089   -2.2325015   0.77602495 
    4900    4573.2801    4635.5539    110601.49   0.29678188   -672.24795   -0.8024638   0.48748824    -2.225384   0.80141723 
    5000    4685.9521    4908.1516    110601.49   0.29678188   -655.49023  -0.80106485   0.50136404   -2.2210036   0.81734458 
    5100    4773.0009    5300.4733    110929.89   0.29590329   -641.25887  -0.79818142   0.51297756   -2.2173553   0.82782205 
    5200    4867.6735    5426.4176    110929.89   0.29590329   -628.79306  -0.79877066   0.53382545   -2.2150326   0.82240336 
    5300    4964.9444     5486.268    111874.62    0.2934045   -613.67607  -0.79818361   0.55230174   -2.2079813   0.82285943 
    5400     5047.184    5686.0213    111874.62    0.2934045   -596.02029  -0.79267636   0.55135932   -2.1972734   0.85713659 
    5500    5098.0318    5834.3947    112819.94   0.29094607   -579.59684   -0.7863167   0.54810797   -2.1797535   0.88379026 
    5600    5146.4067    5864.2079    112819.94   0.29094607   -564.21671  -0.78075128   0.54892914   -2.1628458   0.90113822 
    5700    5214.8328    6034.1582     113775.7     0.288502   -546.63607  -0.77378546   0.55321073   -2.1499201   0.91929275 
    5800    5327.6107    6232.9562     113775.7     0.288502   -529.47772  -0.76976869   0.56227767   -2.1497051    0.9451014 
    5900    5400.9926    6732.8445     114801.6   0.28592386   -511.02774  -0.76129368   0.57043161   -2.1391418   0.95728187 
    6000    5489.4347    6963.9066     114801.6   0.28592386   -491.95627  -0.75573068   0.57934201   -2.1266316   0.97383838 
    6100    5579.2528    6838.2365    115933.98   0.28313114   -473.71644  -0.75114726   0.58961385   -2.1152173   0.98815043 
    6200    5648.2739    6957.6389    115933.98   0.28313114   -454.94039  -0.74649467   0.60496399   -2.0941141   0.98389105 
    6300    5701.2124    7150.0693    117190.02   0.28009653     -437.042  -0.74395004   0.62662665   -2.0650721   0.96038917 
    6400     5722.029    7599.2894    117190.02   0.28009653   -422.01646  -0.73902409   0.64179508   -2.0371071   0.93754041 
    6500    5747.3064    7737.5049    119268.95   0.27521429   -406.09925  -0.73031274   0.64469876   -2.0158987   0.94154189 
    6600    5756.9958    7974.0468    119268.95   0.27521429   -393.68797  -0.72213024   0.64206199   -1.9982641   0.95074844 
    6700    5758.9302    8372.7045    121675.36   0.26977128   -377.70359  -0.71493248   0.65164381     -1.96457   0.93190343 
    6800    5794.7771    8480.2742    121675.36   0.26977128   -360.94375  -0.71462393    0.6709182   -1.9277329   0.90656538 
    6900    5821.3843    7934.5124    124361.74   0.26394385   -343.73984  -0.70645391   0.66741946   -1.9019808   0.92419025 
    7000    5821.1496    7929.4298    124361.74   0.26394385   -328.89197  -0.69529835   0.65123861   -1.8790287   0.95720644 
    7100    5786.2062     7740.169    126634.17   0.25920743    -318.9481  -0.68442984   0.64239025    -1.856926   0.96156665 
    7200    5758.3325     7974.981    126634.17   0.25920743   -308.29061  -0.67408969   0.64617784   -1.8343271   0.94285257 
    7300    5793.8205    7956.4384    128640.13   0.25516545   -296.89212  -0.67169617   0.66251012   -1.8181115   0.92339334 
    7400    5784.7317    8104.9919    128640.13   0.25516545   -284.42593  -0.66528047   0.65641034   -1.7893064   0.93229936 
    7500    5814.8342    7912.3396    132225.61    0.2482463    -271.3002  -0.66111133   0.65991791   -1.7692911   0.93696313 
    7600    5839.0695    7762.0181    132225.61    0.2482463   -258.02103   -0.6608131    0.6649822   -1.7385752   0.93613372 
    7700    5796.3388    8006.8308    135595.86    0.2420761   -244.45112   -0.6549926   0.66095247   -1.6919232   0.92757111 
    7800    5759.9948    8349.3387     139380.1   0.23550362   -230.36371  -0.64508931   0.67615379   -1.6545451     0.882171 
    7900    5737.6215    8532.1331     139380.1   0.23550362   -221.86744  -0.64216054   0.68157038   -1.6255949    0.8622873 
    8000     5730.419    8617.1719     142704.2   0.23001788   -213.77474  -0.64021572   0.68174061   -1.6018407   0.85910592 
    8100    5726.2232    8582.5604    145794.23   0.22514277    -205.5472  -0.63948449   0.68526822    -1.576371   0.85023748 
    8200     5726.268    8458.7576    145794.23   0.22514277   -195.79766   -0.6381864   0.70386574   -1.5490461   0.81220171 
    8300    5705.5247    7862.9679    150509.98   0.21808865   -187.27421  -0.62850682   0.70101342   -1.5344667   0.80987865 
    8400    5599.4921     7859.841    150509.98   0.21808865   -178.18555  -0.60697744   0.67112628   -1.5088462   0.82932458 
    8500    5614.2091    7388.4935    154801.36   0.21204283   -173.30975  -0.60598765   0.66707765   -1.5016579   0.84339758 
    8600     5619.039     7288.045    158581.71   0.20698805   -170.34275  -0.60816869   0.66909061   -1.4899657    0.8411786 
    8700     5576.425    7270.5906    158581.71   0.20698805   -165.95435  -0.60273068   0.66536371   -1.4708278   0.83204224 
    8800    5578.0856    6867.5567    164011.17   0.20013587   -156.81427   -0.6017996   0.67170129   -1.4452628   0.81972778 
    8900    5504.7753    6557.7169    169898.33   0.19320095   -151.79757  -0.59797944   0.66444231    -1.408807   0.80574428 
    9000     5458.478    6312.5441    169898.33   0.19320095   -148.29073   -0.5976535   0.66371491   -1.3804726   0.78902165 
    9100    5466.7244    5511.6715    175558.08   0.18697242   -145.64785   -0.5990709   0.65993761   -1.3726842   0.79999429 
    9200    5453.3243    5287.9145    175558.08   0.18697242    -144.4677  -0.59604976   0.65177443   -1.3699638   0.81142651 
    9300    5414.1175    5395.1586    181122.17   0.18122861    -139.0189  -0.58735715   0.64840608   -1.3555627   0.80289674 
    9400    5448.8631    5144.0285       187444    0.1751164   -128.33848  -0.58616117   0.64056924   -1.3388142   0.83259927 
    9500    5395.8658    5128.6641       187444    0.1751164     -124.995  -0.58757806   0.65083444   -1.3047809   0.79074868 
    9600    5380.8889    5199.0497    193800.87    0.1693724   -118.70536  -0.58912972    0.6611078   -1.2763621   0.76383664 
    9700    5354.4717    4805.3163    200277.02   0.16389557   -117.29136  -0.58925251    0.6596026    -1.261369   0.75652535 
    9800     5349.786    4519.5739    200277.02   0.16389557   -117.38697  -0.58887612   0.66005563   -1.2605902   0.75375527 
    9900    5297.3901    4339.9091    207964.45   0.15783716   -118.72096  -0.58596346   0.65254408   -1.2500447   0.74851521 
   10000    5289.7952    3990.0012    216142.52   0.15186516   -117.41371  -0.58215913   0.65065716   -1.2508191    0.7493887 
   10100    5257.6037    4223.5281    216142.52   0.15186516   -115.69942   -0.5798895   0.65502924   -1.2375259   0.72778025 
   10200    5275.5582    4056.9652    224842.41     0.145989   -109.95711  -0.57991715   0.65629528   -1.2268631   0.73225214 
   10300    5333.7126    3951.0205    233819.97   0.14038372   -106.45176  -0.58586439   0.67278281   -1.2267834   0.72139107 
   10400    5327.8167    4077.5165    233819.97   0.14038372    -100.8603  -0.58193394   0.67164082   -1.2153021    0.7214086 
   10500    5290.6804    3590.3806    243069.09   0.13504193    -100.7793  -0.58218681   0.67664938   -1.1999279   0.69655278 
   10600    5256.6115    3249.7631    252713.95   0.12988803   -98.929243  -0.57569782   0.66713439    -1.194112     0.702621 
   10700     5203.448    3112.5698    252713.95   0.12988803   -100.99014  -0.57237629   0.66694485   -1.1863377   0.68209702 
   10800    5145.0599    2823.9254    263285.83   0.12467256   -107.42958  -0.57218168   0.66356567   -1.1835827    0.6660445 
   10900    5114.2551    2709.6952    274168.63   0.11972383   -106.26848  -0.56769271   0.66046102   -1.1770782   0.66028004 
   11000    5096.2393    2725.0035    274168.63   0.11972383   -104.77529  -0.56291283   0.65834367   -1.1751776   0.65752597 
   11100    5107.3055    2594.6027    285377.94   0.11502122   -106.52071  -0.56356474   0.64975722   -1.1835671   0.67944805 
   11200    5027.8394    2722.7885    285377.94   0.11502122   -111.89716   -0.5572733   0.64337981   -1.1817254   0.66123931 
   11300    5095.4627    2475.8162    296932.88   0.11054525   -109.86561  -0.55928027   0.64514337   -1.1979675   0.68423036 
   11400    5094.8203    2557.5727    308856.09   0.10627771   -107.84611  -0.55993617   0.64437435   -1.1901589   0.68555121 
   11500    5164.6609     2528.037    308856.09   0.10627771   -101.13154  -0.56398125   0.65131572   -1.1886935    0.6988198 
   11600    5119.0674    2128.6786    321172.23   0.10220223   -102.87174  -0.56283043   0.65395773   -1.1784686   0.67547969 
   11700     4993.028    1884.9724    333904.16  0.098305209   -107.27305  -0.55471065   0.65262792    -1.159048   0.62862325 
   11800    4932.8498    1739.8475    333904.16  0.098305209   -111.17514  -0.55162666   0.65127834   -1.1536937   0.60771371 
   11900    4945.1562     1866.821     347068.4   0.09457651   -113.95728  -0.55623157   0.65079838   -1.1576725   0.61353648 
   12000    5026.6108    1919.4025    360671.99  0.091009335    -108.7307  -0.55803178   0.65045026   -1.1699473   0.64628883 
   12100    5041.9473    1853.0745    360671.99  0.091009335   -110.04202  -0.55950365   0.65146155    -1.177003   0.65025216 
   12200    5038.4492    1724.3911    374713.04  0.087599081   -114.28966  -0.56462711   0.66089857   -1.1782133    0.6295666 
   12300    4991.2801    1697.4724    389184.45  0.084341802   -114.88102  -0.56184231   0.65677151   -1.1671771   0.61945733 
   12400    4965.1965    1621.4933    389184.45  0.084341802   -114.62663   -0.5617584    0.6473767   -1.1563061   0.62842058 
   12500    4909.8844    1617.8972    405091.94  0.081029797   -112.36047  -0.56094512   0.64321589   -1.1292405   0.61517732 
   12600    4926.0959    1587.7552    405091.94  0.081029797    -111.6698  -0.56370623   0.64545144   -1.1278425   0.61697982 
   12700    4986.2471    1363.1198    422133.97  0.077758532   -115.31232  -0.57494302   0.66554242   -1.1397184   0.59953093 
   12800    4931.7498    1531.9266    438399.08  0.074873601   -111.30941  -0.56506257    0.6459831   -1.1261823   0.61811592 
   12900    4954.8652     1428.455    454976.23  0.072145567   -106.71665   -0.5599883   0.64063157   -1.1315258   0.63815837 
   13000    4905.8473     1416.522    454976.23  0.072145567   -107.97291  -0.55417881   0.64154827   -1.1279972   0.61700153 
   13100    4881.8302    1443.6903    473218.68  0.069364375   -108.51226  -0.55254843   0.64729719   -1.1235457   0.59579127 
   13200    4893.2504    1259.9896    492714.34  0.066619774   -109.33928  -0.55664263   0.65353753   -1.1222051    0.5875147 
   13300    4813.2704    1206.5608    492714.34  0.066619774   -111.25135  -0.55211794   0.63957916   -1.1058866   0.58461564 
   13400    4865.2245      1138.31    512739.08  0.064017976   -110.23487  -0.55761466   0.65207841   -1.1119479   0.57947631 
   13500    4910.8963    1088.9138    533294.27   0.06155048   -108.48226  -0.55748282   0.65076452   -1.1247899   0.60012967 
   13600    4825.4985    1184.2417    533294.27   0.06155048   -108.99744    -0.543714   0.63042994   -1.1209572   0.60814627 
   13700    4817.5583    1096.5937    554385.21  0.059208863   -108.29884  -0.54631893   0.63393377   -1.1103543   0.59785363 
   13800    4778.2593    1049.5671    554385.21  0.059208863   -112.28767  -0.55066529   0.64659186   -1.0982761   0.55649502 
   13900    4813.2394    1110.6196     575877.4  0.056999143   -105.63132  -0.55457736   0.65053372   -1.0835496   0.56218872 
   14000    4818.5995    1047.0496    596175.25  0.055058505   -106.26879  -0.55852784   0.65079776   -1.0795362   0.56375684 
   14100     4761.825    999.07301     617679.1  0.053141701   -107.55311  -0.55327929   0.64461172   -1.0718951   0.55408227 
   14200    4767.4225    990.36377     617679.1  0.053141701   -105.85215  -0.55233693   0.64610972   -1.0707914   0.55321891 
   14300    4822.7624    934.28158    640446.05  0.051252588   -105.86345  -0.55838199   0.65475579   -1.0802249   0.55729559 
   14400    4850.6786    969.56494    664225.63  0.049417722   -103.03301  -0.55883166   0.65463843   -1.0815765   0.56851652 
   14500    4842.0542    989.42921    664225.63  0.049417722   -102.75246  -0.55633305   0.64778918   -1.0824335   0.57913877 
   14600    4855.0056    912.60131    688580.77  0.047669815   -99.172914  -0.55729323   0.64694073   -1.0745493   0.58596923 
   14700    4798.7404    911.72351    688580.77  0.047669815   -100.03412  -0.55506794   0.64667498   -1.0596205   0.56438114 
   14800    4840.0557    859.34258    712704.69  0.046056268   -99.301054  -0.56014786   0.65124643    -1.063222   0.57127857 
   14900    4751.5404    918.39452    738212.28  0.044464877   -102.23373   -0.5531625   0.64095135   -1.0517213   0.55752651 
   15000    4759.8342    824.24049    738212.28  0.044464877   -99.474923  -0.55137902   0.64317934   -1.0501443   0.55623008 
   15100    4707.2428    773.42414    764387.18  0.042942266   -97.734975  -0.54422458   0.64007104    -1.038743   0.54190339 
   15200    4671.8205    725.72932    791170.97  0.041488527    -96.44167  -0.53975439   0.63237073    -1.029977   0.54372608 
   15300    4679.5185    723.10686    791170.97  0.041488527   -94.731744  -0.53981658   0.62491822   -1.0276164   0.56200306 
   15400     4720.137    772.26595    818567.39  0.040099958   -91.902957  -0.54572649   0.62976864   -1.0227971   0.56805557 
   15500    4707.8895    830.24369     846583.3  0.038772933   -91.019896  -0.54561029   0.63187599   -1.0155002   0.55892608 
   15600     4765.718     753.7073     846583.3  0.038772933   -88.642335  -0.55380072   0.63911523   -1.0141725   0.56686024 
   15700    4695.8238    740.24326    875225.58  0.037504066   -85.579894  -0.54938485   0.63015223  -0.98629239   0.55770717 
   15800    4632.0984    708.69923     908890.5  0.036114931   -83.754902   -0.5434781   0.61569838  -0.96769686   0.56221565 
   15900    4698.6272    641.15108     908890.5  0.036114931   -80.519595  -0.54687577   0.62647471  -0.97695891   0.56633463 
   16000    4731.7874    616.26653    946759.85  0.034670374   -83.116838  -0.55007974   0.64088299  -0.99143811   0.54989657 
   16100    4736.3547    653.86355    985642.31  0.033302667   -81.850307  -0.54879989   0.64973643  -0.99195641   0.53357762 
   16200    4756.0005     604.9301    985642.31  0.033302667   -83.447457  -0.55084762   0.64556726   -1.0004084   0.54983604 
   16300     4708.389    593.21682      1025551  0.032006715   -82.336693  -0.54391485   0.63011719  -0.99244827   0.56272135 
   16400    4711.4578    622.48093      1025551  0.032006715   -76.982826  -0.54337073   0.62580006  -0.97829529   0.57276197 
   16500    4734.8375    590.01772    1066869.6  0.030767132   -76.861106  -0.55132815   0.63149998  -0.97083503   0.57029543 
   16600    4731.9494     572.4243    1109759.1  0.029578058   -76.612977  -0.55550971   0.63663797  -0.96037941   0.55864628 
   16700    4718.3501    566.19604    1109759.1  0.029578058   -76.652441  -0.55500341   0.63440951  -0.95618756    0.5578568 
   16800    4757.6449    533.38049    1153753.2  0.028450206   -73.431594  -0.55419324   0.63043326  -0.96339154   0.58144938 
   16900    4781.7379    522.60257    1198865.9  0.027379641   -70.335191  -0.55480156   0.63651463  -0.96209635   0.57848287 
   17000    4801.2162    536.79631    1198865.9  0.027379641   -70.095929  -0.55825582   0.64601005  -0.96195398   0.56671555 
   17100    4783.7754    539.02725    1245110.8  0.026362729   -67.701912  -0.55479044   0.64943412  -0.95481815   0.55284905 
   17200    4785.5426     522.8857    1292501.6  0.025396114   -64.297108  -0.55075337   0.64945096  -0.95329745   0.55350975 
   17300    4786.4326    522.32632    1292501.6  0.025396114   -64.484601   -0.5494453   0.64956353  -0.95690094   0.55362948 
   17400    4785.4876     458.7674    1341052.1  0.024476691   -65.617901  -0.54862334   0.64585084  -0.96169816   0.56085451 
   17500     4821.552    423.80041    1390776.1  0.023601584   -61.335496  -0.55026539   0.64861954  -0.95934752   0.56937518 
   17600    4841.6549    475.62737    1390776.1  0.023601584    -57.07858  -0.54959511   0.65609729  -0.95552825     0.561982 
   17700    4873.0924    479.87083    1441687.2  0.022768127    -56.25524  -0.55332127   0.66167962  -0.95773652   0.56292561 
   17800    4842.5772    477.25042    1441687.2  0.022768127   -56.434749  -0.54996828   0.65804406  -0.95314647   0.55836142 
   17900    4828.5283    466.79264    1493799.3  0.021973847   -52.468166  -0.54779213    0.6633414  -0.93986821   0.54199612 
   18000    4836.4247    451.92408    1547126.1  0.021216447   -48.223847  -0.55228073    0.6656098  -0.92073046   0.54046067 
   18100    4826.8081    441.58903    1547126.1  0.021216447   -46.874712  -0.55258968   0.66398158  -0.91216443   0.54000959 
   18200    4776.6236    452.20993    1601681.3  0.020493789   -44.486799  -0.54441433   0.64553457    -0.901805   0.55801497 
   18300    4803.9935    442.91743    1657478.6  0.019803886   -40.888046  -0.54713231   0.64653686  -0.89593644   0.56673007 
   18400    4774.9444    442.22167    1657478.6  0.019803886   -39.809946  -0.54858553   0.64911598  -0.87821925   0.55002634 
   18500    4710.9786    406.31898    1714531.9  0.019144886   -40.763313  -0.54684958    0.6474227  -0.85954389   0.52833024 
   18600    4714.1185    375.65643    1772854.8  0.018515063   -42.064115  -0.54995536   0.64701691   -0.8584265    0.5303956 
   18700    4788.4041    367.45318    1772854.8  0.018515063   -39.727421   -0.5531619   0.65007016  -0.87389574   0.55336831 
   18800    4849.1852    391.07373    1832461.1  0.017912805    -36.73721  -0.55421244   0.65038645   -0.8864537    0.5766293 
   18900    4950.2585    360.79875    1893364.6  0.017336607   -30.021371  -0.55624547   0.64979879   -0.9013867   0.61758877 
   19000    4888.3619    358.67653    1893364.6  0.017336607   -29.257493  -0.54749447   0.65042156  -0.89259526   0.59196753 
   19100    4861.3925    324.71938    1955578.9  0.016785064   -32.075894  -0.54584699   0.65451501  -0.89402989   0.57298334 
   19200     4763.546    351.85048    2019117.9  0.016256861   -30.880354   -0.5345363   0.64644776  -0.87500695   0.55100243 
   19300    4772.4452    345.06527    2019117.9  0.016256861    -31.25337  -0.53273978   0.65775649  -0.88333113   0.53136349 
   19400    4747.6308     329.9038    2083995.2  0.015750764   -31.952074  -0.53051112   0.65538892  -0.88028048   0.52644721 
   19500    4787.1598    301.18376    2083995.2  0.015750764   -32.635151  -0.53666319    0.6521883  -0.88534284   0.54854484 
   19600    4794.7056     314.4281    2150224.7  0.015265622   -31.086129  -0.53892331   0.65043438  -0.87892019   0.55510175 
   19700    4851.4522    292.86134      2217820  0.014800352   -32.147032  -0.54675277   0.66348204   -0.8884854   0.55072542 
   19800    4854.3428    304.93266      2217820  0.014800352   -29.284485  -0.54316995   0.65605878  -0.88814559   0.56705157 
   19900    4780.4287    305.69919      2286795   0.01435394   -31.612433  -0.53407272   0.64853769  -0.88484884   0.55336689 
   20000    4806.1269    278.11678    2357163.3  0.013925432   -31.374438  -0.53458779   0.64856805  -0.89317099   0.56341312 
   20100    4802.1693    280.92489    2357163.3  0.013925432   -31.631333   -0.5341352   0.64649697  -0.89333077   0.56609412 
   20200    4829.7708    271.34203    2428938.7  0.013513935    -27.44681  -0.53054239   0.64856168  -0.89866379   0.57272646 
   20300    4863.1475    275.98411    2502134.9  0.013118604   -27.351694  -0.53469021   0.65733913  -0.90301271   0.56789508 
   20400    4932.5766    290.15754    2502134.9  0.013118604   -25.930685  -0.54210862    0.6722109  -0.91077102     0.564775 
   20500    4876.4797    290.27944    2576765.7  0.012738651   -29.736341  -0.53871222   0.67068373  -0.90736466   0.54583422 
   20600    4902.3586    261.92983    2652844.8  0.012373327   -28.439875  -0.54259996   0.67331661  -0.90560003   0.55062636 
   20700    4838.3292    260.74567    2652844.8  0.012373327   -27.136354  -0.53742876   0.66741656  -0.88698441    0.5375129 
   20800    4838.0139    241.70821    2730386.1  0.012021933   -24.477004  -0.53922944     0.670948  -0.87499329   0.53016298 
   20900    4790.3542    231.69682    2730386.1  0.012021933   -22.173964  -0.53933207   0.65997055  -0.84895013   0.53387766 
   21000    4718.0322    225.64137    2810998.3  0.011677175   -24.061114  -0.53949268    0.6571312  -0.82598039   0.51123968 
   21100    4732.2429    211.62084    2896491.2  0.011332511   -25.906388  -0.54487748   0.66949005  -0.82622977   0.49154131 
   21200    4759.0773    225.02221    2896491.2  0.011332511   -24.861388  -0.54375269   0.67310932  -0.83587115   0.49469101 
   21300    4801.7774    219.47295    2983689.9  0.011001317   -25.321079  -0.54552301   0.67729363  -0.85045927   0.50292529 
   21400    4782.8168    210.81915    3072611.4  0.010682938   -24.882228   -0.5434443   0.67431462  -0.84590418   0.50156266 
   21500    4770.0768    181.53812    3072611.4  0.010682938   -23.704773  -0.53972182   0.67399537  -0.84488676   0.49720464 
   21600    4707.9266    185.95173    3163272.3   0.01037676   -23.053059  -0.53405708   0.67035954  -0.83002573   0.48019743 
   21700    4613.6122    212.71305    3255689.3  0.010082202   -23.599107  -0.52533605   0.66688764  -0.81245198   0.45020302 
   21800    4701.8488    200.44035    3255689.3  0.010082202   -20.984412  -0.53393917   0.68084727  -0.82151122   0.45634722 
   21900    4715.6468    193.86483    3349879.4 0.0097987164   -20.578246  -0.53788764    0.6785738  -0.81760973   0.46642652 
   22000    4647.8266    214.92981    3445859.1 0.0095257864   -21.174585  -0.53098483    0.6684342  -0.80689182    0.4604967 
   22100    4671.6107    206.10655    3445859.1 0.0095257864   -24.575884  -0.53564837   0.66420516   -0.8171705   0.47850543 
   22200    4725.1989    186.62536    3543645.4  0.009262924   -23.061819  -0.53827928   0.66876733   -0.8282074   0.49024934 
   22300     4677.162    187.25736    3643254.9 0.0090096682    -24.79644  -0.53295319   0.66963368   -0.8255475   0.46958144 
   22400    4732.7111    172.63235    3643254.9 0.0090096682   -24.674043  -0.53812533    0.6818311  -0.83643803   0.46647378 
   22500    4724.2119    174.65322    3744704.4 0.0087655831   -25.583981  -0.53806254   0.67566179  -0.83602319   0.47575401 
   22600    4728.5345     166.5049    3744704.4 0.0087655831   -25.106665   -0.5359458   0.66910653  -0.84058597   0.49086735 
   22700    4685.6983    165.24857    3848010.8 0.0085302563   -26.267858  -0.53243478   0.66135496  -0.83449342   0.48987871 
   22800    4724.2739    144.62195    3953190.6 0.0083032975   -27.186057  -0.53715753   0.67103008  -0.84282882   0.48525558 
   22900    4653.3451    153.18941    3953190.6 0.0083032975   -29.541951  -0.53132381   0.66436142  -0.83411469   0.47100096 
   23000    4573.8087    160.91729    4060260.8 0.0080843373   -28.667242  -0.52099101   0.65319936  -0.82128024   0.46255471 
   23100     4592.127    148.21556    4169238.1 0.0078730256   -28.835546  -0.52408717   0.65737487  -0.82266832   0.46121643 
   23200    4608.3456    149.80809    4169238.1 0.0078730256    -28.05361  -0.52451572   0.65969892  -0.82576506   0.46284065 
   23300     4671.747    143.11742    4280139.2 0.0076690305    -27.02497  -0.53087785   0.65095134  -0.83452098   0.50567838 
   23400    4703.9987    140.03215    4392980.9 0.0074720375   -26.042691  -0.53369892   0.65101162  -0.83841238   0.51824119 
   23500    4689.8434    148.80862    4392980.9 0.0074720375   -28.125405  -0.53559877   0.65714423   -0.8353654   0.50012498 
   23600    4709.0987    144.09455      4507780 0.0072817481   -30.828081  -0.54192142   0.66514758  -0.83831828   0.49132295 
   23700     4724.683    139.49252    4624553.2 0.0070978788   -33.792028  -0.54451524   0.66475669  -0.84826077    0.4982528 
   23800    4724.5241    137.81046    4624553.2 0.0070978788   -35.138149  -0.54345997   0.66189928  -0.85449944   0.50403701 
   23900    4653.5941    143.35455    4743317.3 0.0069201607    -33.35224  -0.53327959   0.65503799  -0.84193477   0.49017606 
   24000     4694.348    128.32187    4743317.3 0.0069201607   -33.297336   -0.5388218   0.66269887  -0.84645608    0.4905312 
   24100    4654.5969    127.51135      4864089 0.0067483382   -35.046012  -0.53661138    0.6602887  -0.84072345   0.47982674 
   24200    4598.2615    139.73006    4986885.2 0.0065821683    -33.60962  -0.53202633   0.65464542  -0.82352608   0.46921433 
   24300    4608.8496    138.34953    4986885.2 0.0065821683   -30.306433  -0.53180998   0.65593209   -0.8179699   0.47074643 
   24400    4618.1638    130.84937    5111722.6   0.00642142   -30.399723  -0.53476043   0.65178349  -0.81588359   0.48289881 
   24500    4671.1328    119.96898    5238617.9 0.0062658736   -30.193637  -0.54482343    0.6627023  -0.81549431    0.4813925 
   24600    4666.9511    121.69399    5238617.9 0.0062658736   -30.135176  -0.54480106   0.65880656  -0.81371534   0.48771894 
   24700    4662.1389    121.20255      5367588   0.00611532   -33.932133  -0.54722921   0.66097306  -0.81853706   0.48139308 
   24800     4694.126    111.37439    5498649.5   0.00596956   -34.133413   -0.5488796    0.6620155  -0.82836151   0.49184215 
   24900    4650.4137    114.44653    5498649.5   0.00596956   -33.341379  -0.54125425   0.65594734  -0.82433294   0.48706436 
   25000    4689.0295    110.58497    5631819.3  0.005828404   -31.899754  -0.54055518   0.66125413  -0.83651707   0.49139535 
   25100    4692.2741     114.5194    5767114.1 0.0056916714   -31.651471  -0.53643072    0.6617476  -0.84546863   0.49166188 
   25200    4660.9562    124.83221    5767114.1 0.0056916714   -32.137198  -0.53018324   0.65385072  -0.84742764   0.49550126 
   25300    4638.0316    121.91039    5904550.6 0.0055591899   -34.287008  -0.53162247    0.6611458  -0.84208018   0.47155703 
   25400    4642.6474    103.23082    6044145.7 0.0054307953   -36.083505  -0.53306185   0.65282239  -0.84647829   0.49040362 
   25500    4615.5434    98.427184    6044145.7 0.0054307953   -35.240077  -0.53324752   0.64051376  -0.83284191   0.50492767 
   25600    4597.4399    96.604792    6185916.1 0.0053063309      -33.154  -0.53751083   0.63379667  -0.81057884   0.51155089 
   25700    4612.4994     94.66766    6185916.1 0.0053063309   -31.177481  -0.54082504   0.63818239   -0.8036395   0.50850067 
   25800    4613.2743     101.3035    6329878.6 0.0051856473   -31.162897  -0.54040451   0.64932045  -0.80475988   0.48601529 
   25900    4651.7526    100.68682    6476049.9 0.0050686018   -27.868778   -0.5401145   0.65247303  -0.81035292   0.49469999 
   26000    4635.7471    97.224319    6476049.9 0.0050686018   -26.207376  -0.53815594   0.64799652  -0.80295272    0.4975639 
   26100    4638.6949    92.187079    6624446.7  0.004955058    -27.12968  -0.54369483   0.64836166  -0.79561664   0.49797626 
   26200    4718.2774    90.639654      6775086 0.0048448858   -26.095259  -0.55718758   0.66104623  -0.79612923   0.50332535 
   26300    4729.7035    101.17491      6775086 0.0048448858    -24.25297  -0.56061791   0.65818994   -0.7879361    0.5136642 
   26400    4684.8254    101.30951    6927984.3 0.0047379608   -24.864094  -0.55894476   0.65365884  -0.77558729   0.50528281 
   26500    4670.4659    90.594482    7083158.6 0.0046341639   -25.211484  -0.55801247   0.65672885  -0.77291547   0.49335278 
   26600    4626.5394    95.931872    7083158.6 0.0046341639   -25.097769  -0.55252564   0.64715534  -0.76651409   0.49566326 
   26700    4670.2643    93.482485    7240625.5 0.0045333815   -25.994403  -0.55138509   0.64498363  -0.78880581   0.51730602 
   26800    4671.7304    92.923063    7400401.8 0.0044355048   -27.825639  -0.54978663   0.64493921  -0.79828777   0.51797361 
   26900    4687.5524    86.069474    7400401.8 0.0044355048   -29.646997   -0.5503708   0.65765241  -0.80892019   0.49818398 
   27000    4667.4772    83.896201    7562504.3 0.0043404297   -27.920631  -0.54400124   0.66190974  -0.80874487   0.48157631 
   27100    4620.1981    88.615681    7562504.3 0.0043404297   -26.786924  -0.53557695   0.65247314  -0.80389675   0.48228786 
   27200    4604.1934    87.137601    7726949.7 0.0042480564   -26.288662   -0.5335129   0.65319733   -0.8002916   0.47451065 
   27300    4667.7789    83.275391    7893754.9 0.0041582895   -24.822213  -0.54028858   0.65616172  -0.80692662   0.49345631 
   27400    4676.3474     85.13865    7893754.9 0.0041582895   -26.496357  -0.54251375   0.65713654  -0.81089519   0.49483206 
   27500    4650.7039    84.475069    8062936.5 0.0040710377   -28.157667  -0.54146957   0.65237645  -0.80805664   0.49448514 
   27600    4664.0732    72.857766    8234511.3 0.0039862132   -29.256784   -0.5460058   0.65550155  -0.80741551   0.49334949 
   27700    4592.5553    71.524395    8234511.3 0.0039862132   -29.172129  -0.54266056   0.65396375  -0.78586846   0.46836461 
   27800    4598.5814    68.518541    8408496.1 0.0039037323   -26.260148  -0.54306419   0.65187397  -0.77845299   0.47501098 
   27900       4619.2    71.051026    8584907.7 0.0038235144   -22.726504  -0.54235188    0.6483411  -0.77714802   0.49035008 
   28000    4681.9287    70.815376    8584907.7 0.0038235144   -21.535534   -0.5480538   0.65739074  -0.78649072   0.49650734 
   28100    4687.4866    74.257111    8763762.9 0.0037454822   -22.768074  -0.55074114   0.66265538  -0.78697065   0.48792129 
   28200    4722.2369     70.56357    8945809.5 0.0036692619   -21.587694   -0.5532747   0.66595386   -0.7918236   0.49484104 
   28300    4664.0329    73.280735    8945809.5 0.0036692619   -24.618568  -0.54811109    0.6667305  -0.78882048   0.47035747 
   28400    4657.1415    68.991806    9132362.1 0.0035943076   -25.187993  -0.54604504   0.66259844  -0.79208926   0.47610155 
   28500    4701.3677    67.785071    9321484.1 0.0035213832   -23.840679   -0.5496747   0.65969204  -0.79791316   0.49944483 
   28600    4713.5408     73.70496    9321484.1 0.0035213832   -22.756304  -0.54949202   0.65943875  -0.79973868   0.50475135 
   28700     4754.523    65.643074    9513193.2 0.0034504206   -20.325819  -0.55242184   0.66653873   -0.8023857   0.50634401 
   28800    4722.8055    64.763615    9513193.2 0.0034504206   -19.723685  -0.55118851    0.6644893  -0.79058055   0.49806143 
   28900    4650.3701    66.581878    9707506.9 0.0033813541   -22.120148  -0.54685063   0.65226232  -0.77833787   0.49458732 
   29000    4634.3341    62.677444    9904442.7 0.0033141207   -25.437182  -0.54781788   0.65195945  -0.78025724   0.48889933 
   29100    4557.4148    69.180224    9904442.7 0.0033141207   -27.979474  -0.54288498   0.64185875  -0.76791708   0.47931084 
   29200    4639.6966    66.607065     10104018 0.0032486599   -27.110445  -0.55295751   0.65534724  -0.77699862   0.48407673 
   29300    4641.9108    68.956229     10306251 0.0031849136    -25.73911   -0.5520401   0.65904888  -0.77552723   0.47737355 
   29400    4716.0077    65.487854     10306251 0.0031849136   -24.940916  -0.55737195   0.66967713  -0.79130739   0.48477242 
   29500    4692.5485    62.114763     10511158  0.003122826   -27.025086  -0.55583972   0.66895282  -0.79162774   0.47702681 
   29600    4620.2182    59.227332     10718758 0.0030623435   -25.778915   -0.5462404   0.65758531  -0.77898405   0.47183551 
   29700    4584.5563     56.38677     10718758 0.0030623435   -24.098776  -0.54048156   0.64770389  -0.77157028   0.47802681 
   29800    4605.4159    57.053345     10929067 0.0030034144   -20.818731  -0.54066547    0.6445764  -0.76930663   0.49263124 
   29900    4586.6954       61.612     11142104 0.0029459892    -19.32388  -0.53785599   0.63849172  -0.76309205   0.49771778 
   30000    4599.2685     61.68467     11142104 0.0029459892   -18.563951  -0.54015102    0.6445072  -0.76100342   0.49035477 
   30100     4618.164    61.333034     11357885 0.0028900202   -16.399219  -0.54081699   0.64943167  -0.76041255   0.48771108 
   30200    4645.8613    54.510204     11357885 0.0028900202   -16.783607  -0.54396519   0.64970974  -0.76604826   0.49803678 
   30300    4631.4646    50.783777     11576429 0.0028354614   -19.007687  -0.54335343   0.64020774  -0.76848045   0.51181643 
   30400     4619.175    50.731733     11797753 0.0027822686    -22.32684  -0.54277208   0.64305543  -0.77504865   0.50115552 
   30500    4622.0427    50.821677     11797753 0.0027822686    -24.11055  -0.54323102   0.64232436  -0.78072591   0.50377939 
   30600    4611.4619    51.245776     12021874 0.0027303993   -23.528726  -0.54221954   0.64026628   -0.7768434   0.50382861 
   30700    4632.6429    51.835371     12248811 0.0026798126   -23.914541  -0.54460172   0.64763912  -0.78148772   0.49707416 
   30800    4638.3344    56.042349     12248811 0.0026798126    -22.73441  -0.54349913   0.64806126  -0.78235138   0.49844916 
   30900    4637.9934    56.416383     12478580 0.0026304691   -24.222242  -0.54251928   0.65007353   -0.7888001   0.49419757 
   31000    4621.0751     53.78706     12711198 0.0025823307   -27.372323  -0.54233991   0.65072415  -0.79220487   0.48621152 
   31100    4583.7846    51.169067     12711198 0.0025823307    -27.26153  -0.53873451    0.6456925  -0.78457302    0.4818389 
   31200    4545.4169    49.122426     12946685 0.0025353608   -28.797034   -0.5374822   0.64467877  -0.77676819   0.46882126 
   31300    4514.5303    47.946785     13185056 0.0024895243   -27.706554  -0.53382763   0.64153961  -0.76874148   0.46309525 
   31400    4552.2334    44.645694     13185056 0.0024895243   -25.681034  -0.53605141    0.6476133  -0.77278937   0.46549802 
   31500    4596.3398      47.8396     13426331 0.0024447869   -22.601994  -0.53684668   0.65070158  -0.77903735    0.4765281 
   31600    4663.8883    49.645434     13670525 0.0024011161   -18.499584  -0.54147101   0.65950198  -0.78352258   0.48509126 
   31700    4690.7843    47.533618     13670525 0.0024011161   -16.888723  -0.54288214   0.65740318  -0.78625819   0.49996521 
   31800    4642.9322    45.964738     13917657 0.0023584801   -16.488155   -0.5368898   0.65139193  -0.77846436   0.49344259 
   31900    4636.4147    44.163624     13917657 0.0023584801   -17.807694  -0.53674979    0.6521725  -0.78024732   0.48928179 
   32000    4626.3073      46.5768     14167745 0.0023168485   -16.927182  -0.53515472   0.64504205  -0.77682608   0.49989606 
   32100    4626.0758    43.319878     14420805 0.0022761918   -19.429502   -0.5384438   0.64924517  -0.77770449   0.49120477 
   32200    4550.3539    42.531709     14420805 0.0022761918   -24.397876   -0.5373375   0.63761145  -0.76547035   0.48522403 
   32300    4530.2228    41.304624     14676855 0.0022364817   -24.254591  -0.53703088    0.6398846  -0.75773835    0.4726543 
   32400    4504.3106    44.640294     14935914 0.0021976907   -24.460112  -0.53491284   0.63846919  -0.75251203   0.46535793 
   32500    4540.5978    42.073136     14935914 0.0021976907    -26.39183  -0.53747932   0.64759924   -0.7674779   0.46094997 
   32600     4501.943    45.779109     15197997 0.0021597923   -26.185346  -0.52814225   0.64073616  -0.77074279   0.45978804 
   32700    4533.0634    43.078877     15463124 0.0021227611   -26.684616  -0.52810253   0.64034826  -0.78460147   0.47282293 
   32800     4563.477    43.835113     15463124 0.0021227611   -21.938319  -0.52791675   0.63173814  -0.78234076   0.50240371 
   32900    4632.7907    40.573222     15731311 0.0020865723   -19.574055  -0.53759279   0.65053626  -0.78253186   0.49120429 
   33000     4607.233    41.348116     16002576 0.0020512021   -17.985654   -0.5369263   0.65545941  -0.76895517   0.47107771 
   33100    4598.8245    40.585093     16002576 0.0020512021   -15.306974  -0.53645069   0.64435076  -0.75837877   0.49050024 
   33200    4568.7383    39.796179     16276937 0.0020166275    -15.88731  -0.53581202   0.63943552  -0.74963685    0.4887232 
   33300    4614.7819    38.160531     16276937 0.0020166275   -16.171006  -0.54059196   0.65420385  -0.75884044    0.4766161 
   33400    4614.5873    37.649564     16554410 0.0019828262   -12.672966  -0.53940119   0.66102773  -0.75043721   0.46257684 
   33500    4613.3773     36.53206     16835015 0.0019497766   -13.742056  -0.53957158   0.65860883  -0.75290211   0.46705034 
   33600    4557.2234    38.834375     16835015 0.0019497766   -14.260037  -0.53143496   0.64151033  -0.74905662   0.47994845 
   33700     4610.423    36.643989     17118767 0.0019174581   -12.562852  -0.53097211   0.64103891  -0.76570759   0.50183906 
   33800    4640.7104     38.31316     17405685 0.0018858504    -14.14008  -0.53321857   0.64010825  -0.77787747    0.5156568 
   33900    4704.6698    39.475698     17405685 0.0018858504   -14.587038  -0.53885437   0.64625809  -0.79287938   0.52823164 
   34000    4711.8789    36.310237     17695786 0.0018549342   -16.298072  -0.54347355   0.65229879  -0.79152821   0.51870711 
   34100     4671.948    33.663334     17989088 0.0018246905   -17.102653  -0.54113648   0.64504741  -0.78307908   0.51783779 
   34200    4607.4288    34.039104     17989088 0.0018246905   -17.102515  -0.53320387   0.64104508  -0.77393146   0.50064864 
   34300    4557.4926    35.377071     18285608 0.0017951013   -16.702338  -0.52734641   0.63848423  -0.76504308    0.4862462 
   34400    4568.4562    37.346964     18585364 0.0017661488   -17.394212  -0.53353448    0.6399405  -0.75882273   0.48757899 
   34500    4645.6678    36.371591     18585364 0.0017661488   -16.139372  -0.54552711   0.65723984  -0.76079398   0.48255293 
   34600    4596.1109    37.082959     18888373  0.001737816    -14.30123  -0.54300462   0.65473635  -0.74080643   0.46818232 
   34700    4607.5883    33.536308     19194653 0.0017100865       -13.29  -0.54430424   0.65357268  -0.73955032   0.47507797 
   34800    4521.8601    33.731804     19194653 0.0017100865   -14.547333  -0.53568438   0.63869424  -0.72733554    0.4718005 
   34900    4522.9546    32.018906     19504222 0.0016829442   -16.315383  -0.53590144   0.64844543   -0.7327621   0.45227859 
   35000    4588.5593    32.467034     19504222 0.0016829442   -15.071361  -0.53691619   0.65417465  -0.75266349   0.46636124 
   35100    4609.4432    34.034666     19817096 0.0016563737   -15.049068  -0.53626742   0.65580935  -0.76213706   0.47123106 
   35200    4595.3178    32.122023     20133294   0.00163036   -15.899768   -0.5312839   0.64817797  -0.76939543   0.48128982 
   35300    4524.1181    30.765158     20133294   0.00163036   -15.295888  -0.52419768   0.64071575  -0.75403053   0.46855237 
   35400    4560.4134    27.782686     20452833 0.0016048886    -14.21435  -0.52937221   0.64414633  -0.75439154   0.47580958 
   35500    4568.3889    30.416159     20775730 0.0015799453   -13.236007  -0.53174769   0.64777768  -0.74965782   0.47151643 
   35600    4611.3144    31.284438     20775730 0.0015799453   -10.078512  -0.53586776   0.64692853  -0.74839684   0.49013862 
   35700    4551.1168    30.259641     21102004 0.0015555166   -10.306521  -0.53334848   0.64184501  -0.73057459   0.47686164 
   35800    4521.6941    29.379889     21431671 0.0015315893   -8.2082738   -0.5337327   0.63970728  -0.71175889   0.46966237 
   35900    4510.3072     31.87514     21431671 0.0015315893   -8.3591771  -0.53573332   0.64295212  -0.70365063   0.45854393 
   36000    4551.0723    32.178195     21764749 0.0015081506   -9.6546076  -0.54025686   0.63824518  -0.71441558   0.48420992 
   36100    4574.4159    31.756386     22101256 0.0014851879   -8.6106757  -0.54296943   0.63510463  -0.71483532   0.49981815 
   36200    4581.1564    30.547857     22101256 0.0014851879   -8.9811636  -0.54566318   0.63905545  -0.71311481    0.4943855 
   36300     4567.163    28.951146     22441209 0.0014626894   -9.6040739  -0.54423376   0.63642889  -0.71245201    0.4942556 
   36400     4547.649    28.492332     22441209 0.0014626894   -10.858402  -0.54208989   0.63959137  -0.71302238   0.48010887 
   36500    4536.0056    28.428212     22784625 0.0014406433   -10.273639  -0.53860544   0.63762405  -0.71377288   0.47955437 
   36600    4479.7897    28.399423     23131523 0.0014190383   -9.0047561  -0.53265047   0.63711239  -0.69994098   0.45848888 
   36700    4493.8323    26.322742     23131523 0.0014190383   -7.7982055  -0.53191235   0.63751134  -0.70326247   0.46319619 
   36800    4536.1591    25.588887     23481920 0.0013978635    -10.49625  -0.53588426   0.64268468   -0.7200862   0.46925996 
   36900    4583.2366    27.460728     23835833 0.0013771081   -14.098499   -0.5372567   0.64371029  -0.74687965   0.48567923 
   37000    4629.9415    29.639862     23835833 0.0013771081   -14.670113  -0.53839491   0.65486146  -0.76468084   0.48123356 
   37100    4586.6566    30.351711     24193280 0.0013567618   -14.907791  -0.53400121   0.65904357  -0.75737629   0.45565025 
   37200    4609.2631    25.582305     24554278 0.0013368146    -15.50514  -0.54119156   0.66744346  -0.75339396   0.44735501 
   37300    4569.9296    25.404839     24554278 0.0013368146   -15.908889  -0.54091127   0.66877063    -0.739738   0.42916765 
   37400    4610.3379    25.475442     24918845 0.0013172568   -15.380801  -0.54386498   0.66421946  -0.74796392   0.45437461 
   37500    4629.7193    27.326319     25286999 0.0012980788   -13.123048  -0.54453273   0.66141521  -0.74727432   0.46773618 
   37600    4612.6654    27.039179     25286999 0.0012980788   -13.599333  -0.54376588   0.65533849  -0.74360077   0.47346193 
   37700    4561.7215    27.884852     25658756 0.0012792716   -12.604239  -0.54097746   0.65138141  -0.72620576   0.46152002 
   37800    4525.4773    25.969112     26034136 0.0012608261   -12.936212  -0.53809574   0.64653764  -0.71886704   0.45717449 
   37900    4551.0536    24.196872     26034136 0.0012608261   -13.821792   -0.5397658   0.64823972  -0.72823513   0.46375222 
   38000     4559.938    25.447027     26413154 0.0012427338   -12.632571  -0.53810014   0.64341887  -0.73147885   0.47711108 
   38100    4511.8395    25.202327     26413154 0.0012427338   -14.685096  -0.53247446   0.63618136  -0.73038584   0.47300066 
   38200    4497.7259    21.762258     26795828 0.0012249861   -16.141602  -0.53144294   0.63653767  -0.73142649   0.46672004 
   38300    4446.9735     21.36539     27182177  0.001207575   -17.374935  -0.52621811   0.63155671  -0.72594878   0.45694845 
   38400    4479.9755    20.076754     27182177  0.001207575   -18.202518  -0.52863425   0.63795933  -0.73653267   0.45682899 
   38500    4459.6187    21.504779     27572218 0.0011904925   -19.196056  -0.52464456   0.63520153  -0.73974592   0.45446456 
   38600    4495.1666    22.012035     27965968 0.0011737308   -17.617667  -0.52646246   0.64012898  -0.74515234   0.45836495 
   38700    4495.5752    22.595396     27965968 0.0011737308   -15.607188  -0.52708171   0.63741962  -0.73785989   0.46406944 
   38800    4514.2209    22.151669     28363444 0.0011572825   -13.015053  -0.52864332   0.63793624  -0.73402306   0.47034662 
   38900    4494.3267    21.551046     28764665 0.0011411403    -14.20853  -0.53099852   0.63891894  -0.72505083   0.46051049 
   39000    4492.4689    19.695218     28764665 0.0011411403   -13.795729   -0.5352406   0.64399379  -0.71436997   0.44939581 
   39100    4466.9789    19.871618     29169647 0.0011252971   -12.725179   -0.5342778   0.64422897  -0.70301956   0.43888816 
   39200    4490.3081    20.644105     29578409 0.0011097459   -11.002063  -0.53451447   0.64074248  -0.70640991   0.45519856 
   39300    4524.7603    20.987655     29578409 0.0011097459   -14.477655  -0.53702209   0.64665173  -0.72552478   0.45665904 
   39400     4522.747    21.615398     29990968 0.0010944801   -17.393459  -0.53528824   0.64758006  -0.73725229    0.4539676 
   39500    4517.5658    22.428101     29990968 0.0010944801   -17.039231  -0.53448571   0.64204107  -0.73576643   0.46326322 
   39600     4500.116    21.956909     30407341 0.0010794932   -17.749925   -0.5361657   0.64456717   -0.7276518   0.45123056 
   39700    4451.7055    19.775911     30827546 0.0010647788   -19.039014   -0.5332242   0.64398817  -0.71859478   0.43337309 
   39800    4414.2003    20.094757     30827546 0.0010647788   -17.235316  -0.52621422   0.63796951  -0.71263585   0.43093559 
   39900    4441.1083    18.752479     31251600 0.0010503308   -17.656105  -0.52498042   0.63790333  -0.72703935   0.44165523 
   40000    4387.8013     19.94652     31679521 0.0010361431   -20.127144    -0.520485    0.6372544  -0.72287262   0.42201479 
   40100    4451.3261     19.26093     31679521 0.0010361431    -20.80378  -0.52804017   0.64710403  -0.73448292   0.42684832 
   40200    4464.9929    20.196123     32111327 0.0010222099   -19.725785  -0.52951206   0.64618729  -0.73353014   0.43409995 
   40300    4455.4139    20.443756     32547035 0.0010085256   -17.720275  -0.52979818   0.64660199  -0.72300601   0.42948353 
   40400    4460.0247    18.386799     32547035 0.0010085256   -15.573516  -0.53265571    0.6406995   -0.7123673   0.44337458 
   40500    4474.0122    17.870352     32986663 0.00099508454   -12.689076  -0.53410842   0.64376003   -0.7060216   0.44261424 
   40600    4461.2746    19.160033     33430227 0.00098188139   -11.688758  -0.53093617   0.64132845  -0.70442428   0.44257928 
   40700    4492.2343    19.289555     33430227 0.00098188139   -12.543708  -0.53243677    0.6415383  -0.71616239   0.45432785 
   40800    4502.4945    20.127865     33877747 0.0009689109   -14.644083  -0.53261672    0.6443007  -0.72629271   0.45271139 
   40900    4525.8036    19.774171     34329238 0.00095616797   -13.927972  -0.53365038   0.64589717  -0.73114286   0.45861336 
   41000    4503.3678    18.716641     34329238 0.00095616797   -11.465453   -0.5300713    0.6427872  -0.72206414   0.45615175 
   41100    4475.2923    17.312747     34784719 0.00094364763   -10.243351  -0.52839609   0.64117046  -0.71068811   0.44841639 
   41200    4496.3079    17.583425     34784719 0.00094364763   -8.5994613  -0.53174877   0.64332408  -0.70703635   0.45227624 
   41300    4543.9012    18.309691     35244208 0.00093134504   -9.4321668   -0.5387511   0.64847773  -0.71399142   0.46045181 
   41400    4566.8049    18.937321     35707721 0.00091925548   -9.1675859  -0.53945043   0.64672527  -0.72075554   0.47304676 
   41500    4635.7332    20.042071     35707721 0.00091925548    -7.827763  -0.54596326   0.64964863  -0.73041961   0.49417797 
   41600    4641.6742    19.907838     36175276 0.00090737435   -8.5673243  -0.54654423   0.65053675   -0.7338433   0.49469761 
   41700    4625.7253    18.953265     36646892 0.00089569719    -7.851671   -0.5449995   0.64623515  -0.72852856   0.49722586 
   41800    4603.5038    18.953254     36646892 0.00089569719   -6.4418955  -0.54400722   0.64606911  -0.71748036   0.48882482 
   41900    4556.3391    18.851993     37122585 0.00088421963   -8.6503658  -0.54457689   0.64887879  -0.70455785   0.46452359 
   42000    4548.0587     17.71709     37602372 0.00087293742   -8.2503569  -0.54477658   0.64832462  -0.69966138   0.46240046 
   42100    4518.6348    17.155342     37602372 0.00087293742   -12.509205  -0.54262252   0.64657953  -0.70559919    0.4543973 
   42200    4525.7839    16.779482     38086272 0.00086184643   -14.779953  -0.54234981   0.64213764  -0.71595621   0.46629819 
   42300    4508.2299    16.671646     38574303 0.00085094262    -16.69589  -0.54030325   0.64697224  -0.71913416   0.44950102 
   42400    4530.0276    16.932079     38574303 0.00085094262   -12.529428  -0.53905201    0.6489926   -0.7174486   0.45394116 
   42500     4544.196    16.808827     39066480 0.00084022205   -8.0579546  -0.53665368   0.64964842  -0.71417069   0.45817236 
   42600    4587.2802    15.757733     39066480 0.00084022205    -8.041844  -0.54191862   0.65498321  -0.72029537   0.46420368 
   42700    4543.2769    17.524452     39562823 0.00082968089   -10.060436  -0.53990201   0.64920995  -0.71332407   0.45870801 
   42800     4608.623     16.58389     40063348 0.0008193154    -8.136243  -0.54479666   0.65811708  -0.72309205   0.46618645 
   42900    4569.7824    17.543266     40063348 0.0008193154    -8.844984  -0.53635344   0.64718216  -0.72727103   0.47328309 
   43000    4632.8401    15.931404     40568074 0.00080912193   -8.6592272  -0.53886858   0.64683917  -0.74635676   0.49878855 
   43100    4713.0178    15.894719     41077017 0.00079909693   -8.5750359   -0.5494669    0.6580868  -0.75594971   0.50731197 
   43200     4677.567    18.269289     41077017 0.00079909693    -8.708508  -0.54643963   0.64897694  -0.74861012   0.51200759 
   43300    4658.3981    17.160831     41590195 0.00078923694   -8.8448122  -0.54720908   0.65419561  -0.73991505   0.49378934 
   43400    4571.1927    16.053515     42107626 0.00077953856   -8.6621275  -0.53857768   0.64742106  -0.72271202     0.473349 
   43500    4562.6866    14.549821     42107626 0.00077953856   -7.4398806  -0.53633837   0.64179341  -0.72018736   0.48151819 
   43600    4520.0687    14.428055     42629327 0.0007699985   -11.314079  -0.53313753   0.63455091   -0.7218937   0.47957377 
   43700    4545.4957    14.446674     43155316 0.00076061355   -14.190985  -0.53604236   0.64430278  -0.73480363   0.46962159 
   43800    4511.3657    14.934687     43155316 0.00076061355   -14.859638  -0.53190926   0.64164557  -0.73189301   0.46163368 
   43900    4505.0941    14.288066     43685610 0.00075138055   -15.344366   -0.5337399   0.64434442  -0.72717177   0.45364447 
   44000    4503.2354    13.870898     44220227 0.00074229645   -17.293033  -0.53653503   0.64932471  -0.72671729   0.44272292 
   44100    4562.7341    14.061751     44220227 0.00074229645   -18.897588  -0.54458969   0.65882835  -0.73857704   0.44668073 
   44200    4627.1585    14.274457     44759185 0.00073335826   -18.329025  -0.54974008   0.66091249  -0.75163036    0.4677575 
   44300    4637.0684    15.590528     44759185 0.00073335826   -17.523474  -0.55051295   0.66029071  -0.75146837    0.4729278 
   44400    4647.6473    15.562271     45302500 0.00072456305   -15.333817  -0.55422956   0.65852224  -0.74128743   0.48070757 
   44500    4577.3555    14.595772     45850191 0.00071590798   -15.766132  -0.55105634   0.65700393  -0.72146132   0.45616509 
   44600    4533.9531    14.084827     45850191 0.00071590798   -14.483092  -0.54566987   0.65609828   -0.7114628   0.44094593 
   44700    4495.2235     14.46567     46402275 0.00070739027   -13.156329  -0.53806266   0.65134473  -0.70771174   0.43543818 
   44800    4483.0262    14.182235     46958770 0.0006990072   -14.281205  -0.53562214   0.64679186  -0.71136879   0.43995626 
   44900    4539.6935    12.920294     46958770 0.0006990072   -14.996669  -0.54120566   0.65262494  -0.72443548    0.4503109 
   45000    4465.4457    14.343119     47519692 0.00069075612   -12.706515  -0.53273074    0.6432639  -0.70552458   0.44025974 
   45100    4511.9742    13.377346     48085060 0.00068263444   -12.157732  -0.53764184   0.65071856  -0.71208906   0.44330829 
   45200    4524.9977    13.397924     48085060 0.00068263444   -10.423069  -0.53663491   0.64668665  -0.71393473   0.45668096 
   45300     4519.153    13.044767     48654891 0.00067463963   -9.0039307  -0.53449621   0.64269092  -0.71164525   0.46255783 
   45400    4488.7793    12.622588     49229203 0.00066676923   -9.6527299  -0.53274735   0.64261459  -0.70527255   0.45076656 
   45500    4496.0174    12.131654     49229203 0.00066676923   -11.053489  -0.53514434   0.64583678  -0.70752506   0.44702057 
   45600    4457.8329    12.689783     49808013 0.00065902083   -15.537274  -0.53504984   0.64052127  -0.70649489   0.44287712 
   45700    4503.6695    11.743876     49808013 0.00065902083   -16.643623  -0.54000559   0.64077156  -0.71778858   0.46039475 
   45800    4474.0429    12.122433     50391339 0.00065139206   -16.770718  -0.53654709   0.63591382  -0.71360269   0.45868086 
   45900    4452.0831    12.216663     50979198 0.00064388063   -15.308978  -0.53244982   0.64126595  -0.70885079   0.43909169 
   46000    4404.0733    12.288905     50979198 0.00064388063   -17.206773  -0.52924453   0.63829292  -0.70236411   0.42629041 
   46100     4403.355    12.273358     51571607 0.00063648429   -18.912843  -0.53160044   0.64084261  -0.70251044    0.4207908 
   46200    4485.5333    11.354202     52168586 0.00062920084    -17.39479   -0.5397777   0.64659642   -0.7134323   0.44134233 
   46300    4531.0924    11.692122     52168586 0.00062920084   -15.931847  -0.54158364   0.64901254  -0.72315631   0.45431919 
   46400    4566.9497    11.838556     52770149 0.00062202814   -13.557184  -0.54112476   0.64910776    -0.730893   0.46822875 
   46500     4530.562    13.042226     53376317 0.00061496409    -13.56916  -0.53691647   0.64020277  -0.72522762    0.4721367 
   46600    4542.6284    12.536421     53376317 0.00061496409   -14.833725  -0.54113883   0.64028416   -0.7252253   0.47671648 
   46700    4506.3272    12.264569     53987105 0.00060800663   -13.518744  -0.53796258   0.63433313  -0.71339926   0.47461415 
   46800     4456.727    12.025322     54602532 0.00060115377   -13.938897  -0.53215904   0.63458611  -0.70705681   0.45458636 
   46900    4460.3458    11.866589     54602532 0.00060115377   -14.224365  -0.53423541   0.63999515  -0.70511004   0.44494205 
   47000    4449.3124    11.770272     55222614 0.00059440355   -17.553673   -0.5354986   0.64660529  -0.70842944   0.42707676 
   47100    4486.9606    12.011578     55847370 0.00058775405   -16.638469  -0.53805242   0.64913875  -0.71519678   0.43670176 
   47200    4537.4667    11.385427     55847370 0.00058775405   -14.708442  -0.54377399   0.65651057   -0.7174175   0.44148438 
   47300      4545.99    11.181773     56476818 0.00058120339   -11.681571  -0.54176062   0.65317892  -0.71557635   0.45165408 
   47400    4502.2495    11.734061     56476818 0.00058120339   -10.359424  -0.53720883   0.64537912  -0.70361662   0.45040841 
   47500    4499.4266    10.673091     57110973 0.00057474976   -11.596375  -0.53827625   0.64772536  -0.70412812   0.44449723 
   47600    4485.4468     10.10775     57749855 0.00056839135   -12.182674  -0.53664022   0.64922386  -0.70378076   0.43593215 
   47700    4424.6954    11.318865     57749855 0.00056839135   -10.874583  -0.52900309    0.6420989  -0.69148613   0.42661444 
   47800    4431.3614    10.342095     58393481 0.00056212641   -12.399991  -0.52994758   0.63961325  -0.69686919   0.43432254 
   47900    4409.0569    10.120163     59041868 0.00055595325   -13.570543  -0.52885875   0.64309142  -0.69392536   0.41843223 
   48000    4426.4329    10.094116     59041868 0.00055595325   -13.250332  -0.52924664    0.6463179  -0.69898122   0.41866517 
   48100    4436.9842    10.367435     59695033 0.00054987017    -12.85225  -0.53034481   0.64203157  -0.69965968   0.43158601 
   48200    4425.7237    10.115878     60352995 0.00054387555   -12.267129  -0.52940423     0.633398  -0.69535456    0.4448223 
   48300    4439.3297    9.6028861     60352995 0.00054387555   -14.748961  -0.53335797   0.63409616  -0.70025292   0.44874567 
   48400    4468.9071    10.073688     61015770 0.00053796777   -12.911804  -0.53567782   0.63479922  -0.70148761   0.45894135 
   48500    4501.6789    10.286805     61683377 0.00053214528   -10.117058  -0.53716681   0.63993901  -0.70273242   0.46131529 
   48600    4527.2055    10.201771     61683377 0.00053214528   -9.6655268  -0.53805633   0.65216433  -0.70956383   0.44634122 
   48700    4583.0416    9.9070642     62355833 0.00052640654   -7.7698509  -0.53917512   0.66441694  -0.72340484   0.44323357 
   48800     4540.298    11.442792     62355833 0.00052640654   -5.2524914  -0.53183369   0.65109283  -0.71386769   0.45368363 
   48900    4556.4099    10.937042     63033155 0.00052075004    -5.347244  -0.53434053   0.65085397   -0.7153674   0.46050993 
   49000    4498.0984    10.942273     63715361 0.00051517433   -6.6450461  -0.52997283   0.64262434  -0.70536089   0.45441226 
   49100    4509.3181    9.5337442     63715361 0.00051517433   -9.2792775  -0.53284804    0.6488508  -0.71199636   0.44608524 
   49200    4474.2654    9.7989694     64402468 0.00050967795   -8.8860138  -0.52868539   0.64666587   -0.7055158   0.43676802 
   49300    4495.2819    9.3305618     65094494 0.00050425951   -10.418065  -0.53168239   0.65197597  -0.71236429   0.43416954 
   49400    4513.7566    8.7990273     65094494 0.00050425951   -11.528386  -0.53599496    0.6564707  -0.71422349   0.43223965 
   49500     4516.444    9.1470666     65791457 0.00049891763   -11.797302  -0.53717395   0.65816964  -0.71369561   0.42982042 
   49600     4520.149    8.8146281     66493374 0.00049365096   -13.372772  -0.53788382    0.6587981  -0.71854805   0.42999186 
   49700    4469.8981     9.389316     66493374 0.00049365096    -14.72222  -0.53352628   0.64978425  -0.71185028   0.42866945 
   49800    4494.0939    9.7188498     67200263 0.00048845818   -12.023819  -0.53696849   0.64790195  -0.70602162   0.44203832 
   49900    4477.0662    9.8478466     67912141  0.000483338   -11.721519  -0.53711463   0.64557908   -0.6980946   0.44009344 
   50000    4420.9652    9.6934271     67912141  0.000483338   -10.990092  -0.53239096   0.63137397  -0.68344216   0.44709204 
   50100    4440.7049    8.7017062     68629025 0.00047828915   -9.4724812  -0.53538423   0.63571182  -0.68041248   0.44598069 
   50200    4407.0352    8.5939274     69350933 0.0004733104   -10.229584   -0.5343317   0.63323887  -0.67165177   0.43779684 
   50300    4416.4508    8.4028324     69350933 0.0004733104   -9.3967067  -0.53560088   0.63112552  -0.67019573   0.44582467 
   50400    4418.5631    9.2784694     70077884 0.00046840053   -5.9507055  -0.53203304   0.62827636  -0.66772387   0.45248538 
   50500    4460.1958    9.8822041     70077884 0.00046840053   -4.4898073  -0.53677119   0.63990755  -0.66990996    0.4450623 
   50600    4467.4528    9.4648357     70809893 0.00046355836   -5.0227328    -0.538583   0.64129843  -0.67069705   0.44507092 
   50700    4461.4053    9.0214343     71546979 0.00045878272   -5.4549465  -0.53576056   0.64315349  -0.67542328   0.43889638 
   50800    4419.1613    9.0238103     71546979 0.00045878272   -6.7377902  -0.53025287   0.63818082  -0.67402346    0.4324546 
   50900    4416.9287     9.151606     72289160 0.00045407248     -3.98496  -0.52636546   0.63895356  -0.67262926   0.42999527 
   51000    4477.8818     8.656271     73036452 0.00044942651   -3.4694773  -0.53143044   0.64635827  -0.68465527   0.43881993 
   51100    4464.1957    9.4578538     73036452 0.00044942651   -4.7167488  -0.53024348   0.63577482   -0.6855383   0.45509187 
   51200    4425.7054    9.8505526     73788874 0.00044484373   -6.7413705  -0.52618829   0.62466548  -0.68492537    0.4626832 
   51300    4422.9654    8.3752214     74569573 0.00044018648   -11.281006  -0.52974206   0.62698515  -0.69054414   0.45685902 
   51400      4375.92     8.660966     74569573 0.00044018648   -9.1310234  -0.52607397   0.61813065  -0.67292903   0.45647144 
   51500     4432.236    8.2528005     75359289 0.00043557361   -5.9287752  -0.52877721   0.61663037  -0.67969654   0.48169308 
   51600    4457.0399    8.3627208     76154552 0.00043102503   -5.8928663  -0.52947462   0.62224138  -0.68791562   0.47996865 
   51700    4451.4932    8.7825671     76154552 0.00043102503   -6.1763194   -0.5311122   0.63575967  -0.68325525   0.45012635 
   51800    4430.4644     8.842019     76955380 0.00042653961   -6.4104381  -0.52855189   0.63955304  -0.68094275    0.4340929 
   51900    4435.2065      8.70212     76955380 0.00042653961   -6.7010637  -0.52743859   0.64262716  -0.68598026   0.42966805 
   52000     4440.096    8.2201334     77761794 0.00042211627     -7.98864  -0.52706814   0.64046955  -0.69262332   0.43600616 
   52100    4428.0979    7.5341564     78573812 0.00041775392   -8.5508284  -0.52489341   0.63932693  -0.69408351   0.43362469 
   52200    4360.6324    7.9039856     78573812 0.00041775392   -10.299766  -0.51790884   0.63992561   -0.6872189   0.40586223 
   52300    4383.0031    7.4432849     79391453 0.00041345153   -11.270415  -0.51796365   0.64462317  -0.69889288   0.40504982 
   52400     4370.647    8.0621331     80214738 0.00040920807    -8.897602  -0.51258201   0.63314239  -0.69774332     0.423681 
   52500    4392.4302    7.9618751     80214738 0.00040920807   -10.810649  -0.51580217   0.63065268  -0.70560906   0.43734372 
   52600    4361.6491    7.9856212     81043686 0.00040502252   -13.362388  -0.51626102   0.62649115    -0.700414   0.43375115 
   52700    4358.0945    7.9770802     81878315 0.00040089391    -13.27122  -0.51979181   0.62774076  -0.69151072   0.42979602 
   52800      4322.43    8.0141858     81878315 0.00040089391   -13.679504  -0.51938668    0.6234094  -0.67956735   0.42463008 
   52900    4380.2312    7.2134073     82718646 0.00039682127   -12.899659   -0.5258967   0.62998266  -0.68658338   0.43391622 
   53000    4393.4869    7.1739185     83564697 0.00039280365   -13.701846  -0.52812023   0.62942591  -0.68971607   0.44026953 
   53100    4411.8807    7.2187285     83564697 0.00039280365   -14.786358  -0.52982596   0.62976247    -0.696798   0.44681604 
   53200    4400.8842    7.6014804     84416488 0.00038884013    -15.84153  -0.53072616   0.63016755  -0.69387727   0.44166173 
   53300    4385.6411    7.2962018     85274039 0.00038492979   -15.276587  -0.53039726   0.63382268  -0.68681611   0.42818691 
   53400    4368.4059    6.8605144     85274039 0.00038492979   -14.764213  -0.52792169   0.63787261  -0.68352554   0.41312068 
   53500    4350.4103    7.2585634     86137369 0.00038107175    -16.28673   -0.5250036   0.63611485   -0.6871025   0.40963878 
   53600    4360.3479    7.4301877     86137369 0.00038107175   -17.692049  -0.52462473   0.64371131  -0.69611076   0.39800423 
   53700    4389.2967    7.1424155     87006496 0.00037726514   -15.733041  -0.52272857   0.64318731  -0.70534984   0.41046336 
   53800    4351.5005    6.6883535     87881442 0.0003735091   -17.102953  -0.51934887   0.63904033  -0.70161324   0.40408163 
   53900    4317.9143    6.6056172     87881442 0.0003735091   -17.096413   -0.5165343   0.63446482  -0.69414111   0.40023276 
   54000    4299.8148    6.7623124     88762224 0.00036980279   -15.180076  -0.51588434   0.62727809  -0.68245515   0.40781849 
   54100    4307.9225    6.6456658     89648862 0.00036614539   -14.539269  -0.52026806    0.6290195  -0.67470283   0.40744445 
   54200    4296.7179    7.2596852     89648862 0.00036614539   -14.009081  -0.52178177   0.62951853  -0.66556689   0.40201606 
   54300    4340.3149    7.0353665     90541376 0.00036253611   -12.913395  -0.52386601   0.63309097  -0.67507973   0.41185513 
   54400    4312.1052    7.2651802     91439785 0.00035897414   -11.773781    -0.516418   0.62770428  -0.67571672   0.41178085 
   54500    4394.8281    6.7899594     91439785 0.00035897414   -12.031229  -0.52209844   0.63706065  -0.69742478   0.42517524 
   54600    4438.6528    6.5879519     92344109 0.00035545871   -13.252765  -0.52468636   0.63335962  -0.71312643   0.44998648 
   54700     4461.169    6.3842815     93254366 0.00035198907   -16.224034  -0.52803864   0.64137339  -0.72426624   0.44244581 
   54800    4441.4616    6.6377469     93254366 0.00035198907    -17.00572   -0.5250108   0.64351953  -0.72511497   0.43030257 
   54900    4423.2995    6.6261503     94170577 0.00034856448   -16.766105  -0.52458179   0.64158105  -0.71811148   0.42712497 
   55000    4455.6649     6.279176     94170577 0.00034856448   -13.695812   -0.5285044   0.64297779  -0.71336905   0.43699792 
   55100     4420.274    6.4850108     95092760 0.0003451842   -12.403243  -0.52557783   0.63614503  -0.70145914   0.43705781 
   55200    4400.2949     6.698932     96020935 0.00034184751   -13.586832  -0.52168851   0.63343645  -0.70520037   0.43474124 
   55300    4410.1188    6.3350277     96020935 0.00034184751   -16.549642  -0.52225598   0.63251351   -0.7170198   0.44049396 
   55400    4386.2001    6.0240018     96955121 0.00033855373   -16.228082  -0.52150714   0.63126574  -0.70815426   0.43363871 
   55500    4361.6291    6.4171124     97895338 0.00033530216   -14.447501  -0.52002162   0.63711666  -0.69605015   0.41200183 
   55600    4350.9189    7.0030941     97895338 0.00033530216   -12.885351  -0.52147975    0.6344672  -0.68404714   0.41321021 
   55700    4414.8046    6.5431531     98841605 0.00033209212    -9.899809  -0.52726038   0.63262977  -0.68816214    0.4420992 
   55800    4411.7004    6.2261138     99793942 0.00032892295   -8.4706325  -0.52719396   0.63470207  -0.68267957   0.43663795 
   55900    4339.0112     6.545197     99793942 0.00032892295   -8.3984488  -0.52133734   0.62700054   -0.6658488   0.42380425 
   56000    4385.4879    5.6438884 1.0075237e+08 0.00032579401   -9.3364369  -0.52760253   0.64240524   -0.6741969    0.4105654 
   56100    4356.9963    6.0281661 1.017169e+08 0.00032270466   -10.800235  -0.52582409   0.63971203  -0.67113277   0.40486903 
   56200    4374.9947    6.4770372 1.017169e+08 0.00032270466   -11.526806  -0.52641343   0.63948246  -0.67924213    0.4124184 
   56300    4451.0562    6.1617265 1.0268756e+08 0.00031965428   -9.3598101  -0.52831443   0.64024354  -0.69860338   0.44077977 
   56400    4463.4247    6.1939118 1.0366437e+08 0.00031664224   -6.1249985   -0.5254304   0.64686128  -0.69941641     0.432104 
   56500    4495.2697    5.9780395 1.0366437e+08 0.00031664224   -3.8884256  -0.52483863   0.64851682  -0.70627168   0.44124269 
   56600    4510.1194    5.9121116 1.0464734e+08 0.00031366796   -4.5754783  -0.52878852   0.64923621  -0.70614473   0.44561184 
   56700    4495.7483    6.1380976 1.0464734e+08 0.00031366796   -1.0098046  -0.52611967   0.64314539  -0.69498145   0.45242173 
   56800    4523.2647    5.7548269 1.056365e+08 0.00031073083   0.10663022  -0.52932241   0.64526518  -0.69581651   0.45890785 
   56900    4497.6554    6.2271248 1.0663187e+08 0.00030783029   0.65266297  -0.52575654   0.64023099  -0.69135932   0.45913518 
   57000     4535.392     5.866902 1.0663187e+08 0.00030783029  -0.22820802  -0.52875856   0.64888727  -0.70277076   0.45626676 
   57100    4481.1407     6.403013 1.0763346e+08 0.00030496575   -1.8441562  -0.52154074   0.64553576    -0.701172   0.44178479 
   57200    4514.4809    6.2649072 1.0864129e+08 0.00030213668  -0.44219652  -0.52021909   0.64096783  -0.71267689    0.4642458 
   57300    4431.2361    6.4560187 1.0864129e+08 0.00030213668  -0.54315728  -0.51133411   0.63549511  -0.69842336    0.4426996 
   57400    4432.8467     5.669065 1.0965538e+08 0.00029934251   -2.5427048  -0.51557222   0.64281667  -0.69653752   0.42835208 
   57500    4415.2056    5.4301452 1.1067576e+08 0.00029658271   -2.5890981  -0.51515515   0.63943922  -0.69059455   0.42832378 
   57600    4433.6763    5.2523939 1.1067576e+08 0.00029658271   -2.0833568  -0.51720583   0.63343192  -0.69210785   0.44788105 
   57700    4456.8596    5.7876867 1.1170244e+08 0.00029385676    1.5640468  -0.51860153   0.63141089  -0.68714836   0.46113551 
   57800    4495.0813    5.9529072 1.1273545e+08 0.00029116413    3.8463772  -0.52360318   0.63696345   -0.6849261   0.46480856 
   57900    4492.8975    5.6200449 1.1273545e+08 0.00029116413    3.5527756  -0.52547377   0.64907303    -0.681143   0.43917152 
   58000    4393.4127    5.5302893 1.1377479e+08 0.00028850432   0.86960936   -0.5178024   0.64702066  -0.66596348   0.40423876 
   58100    4364.9568    5.1858683 1.1377479e+08 0.00028850432   -2.1361871  -0.51644241   0.64707566  -0.66680174   0.39293314 
   58200    4391.7702    5.2342517 1.1482049e+08 0.00028587683   -2.5385426  -0.51640673   0.64573021  -0.67865977   0.40623313 
   58300    4442.9397    5.7041579 1.1587257e+08 0.00028328117    2.6922957  -0.51796941   0.64556992  -0.67949488   0.42668859 
   58400    4374.0525    6.0163338 1.1587257e+08 0.00028328117    3.7780234   -0.5118267   0.63287149   -0.6616264   0.42557483 
   58500    4397.7985    5.1583129 1.1693105e+08 0.00028071686    3.2469317  -0.51474741   0.63595336  -0.66662476    0.4286093 
   58600    4408.3076    4.9521921 1.1799595e+08 0.00027818343    2.4382762  -0.51631528   0.64392493   -0.6700386     0.416432 
   58700    4419.9629    5.5793544 1.1799595e+08 0.00027818343    2.8161561  -0.51575149   0.65233174  -0.67461406   0.40381496 
   58800    4456.9252    5.5490673 1.1906729e+08 0.00027568041    2.1448214  -0.51747035   0.65345509  -0.68770174    0.4160555 
   58900    4466.6486    5.4458615 1.2014508e+08 0.00027320734     2.036079  -0.51627493    0.6533177  -0.69430699   0.42016128 
   59000    4435.5584    5.4857352 1.2014508e+08 0.00027320734    2.3555411  -0.51445803   0.65407251  -0.68481243   0.40638754 
   59100    4376.1384     5.101567 1.2122935e+08 0.00027076379    1.2640016  -0.51280398    0.6444009  -0.66818271   0.40280439 
   59200    4372.9672    4.6123329 1.2232011e+08 0.00026834931     0.130624  -0.51618145   0.63882446   -0.6635118   0.41296723 
   59300    4360.4365    5.2980246 1.2232011e+08 0.00026834931    2.6108892  -0.51667441   0.63213922   -0.6499426   0.42171734 
   59400     4457.036     4.928067 1.2341739e+08 0.00026596347    4.2543433  -0.52678716   0.63722251  -0.66219085   0.44931341 
   59500    4470.9875     4.824852 1.2452121e+08 0.00026360584    3.7077513  -0.52902477   0.63943184  -0.66478199    0.4502806 
   59600    4494.1858     4.945041 1.2452121e+08 0.00026360584    2.4194017  -0.53153466     0.640077  -0.67273554   0.45808554 
   59700    4461.8274    5.4305349 1.2563158e+08 0.00026127602    2.7803619  -0.52468227   0.63131204  -0.67291781   0.46329187 
   59800    4488.2396    5.2594638 1.2563158e+08 0.00026127602     2.420316  -0.52700585   0.64199235  -0.67966042   0.45182747 
   59900    4452.5976    5.4890565 1.2674852e+08 0.00025897359    2.5266217  -0.52604601   0.64144569   -0.6672776   0.43892633 
   60000    4434.1369    5.1360916 1.2787205e+08 0.00025669814    1.4757801  -0.52468666   0.63506457  -0.66603091   0.44472159 
   60100    4419.8103    4.8883188 1.2787205e+08 0.00025669814   -0.3910879  -0.52233765   0.63194946  -0.67094618   0.44546021 
   60200    4386.1071    5.0979012 1.290022e+08 0.0002544493   -1.7910382  -0.51667093   0.62685214  -0.67359159     0.442633 
   60300    4373.6004    5.0994691 1.3013897e+08 0.00025222666   -2.0744424  -0.51268612   0.62462115  -0.67769767   0.44227847 
   60400    4381.3841    4.9209034 1.3013897e+08 0.00025222666   -3.4834451    -0.513167   0.62675781  -0.68411079   0.44096823 
   60500    4420.1805     4.952902 1.312824e+08 0.00025002984   -1.3745218  -0.51795069    0.6293678  -0.68309415   0.45088831 
   60600    4456.2158    4.6428011 1.324325e+08 0.00024785848   -1.7864177  -0.52626106   0.63887956  -0.68153166   0.44560022 
   60700    4440.7168    4.9034724 1.324325e+08 0.00024785848   -2.2224308  -0.52740898   0.64528272  -0.67442789   0.42640184 
[...]
  235900    4179.0854  0.059494836 1.0979586e+10 2.9895953e-06    27.662065    -0.514714     0.626479  -0.50553919   0.36196484 
  236000    4152.7829  0.060952174 1.0979586e+10 2.9895953e-06    26.043392  -0.51476596   0.62562649  -0.50006734   0.35336315 
  236100     4127.179   0.06004459 1.1002056e+10 2.9834895e-06    26.090565  -0.51230312   0.62403878  -0.49489028   0.34654058 
  236200    4106.7933  0.057773403 1.1024556e+10 2.9774004e-06    25.953984  -0.51000901   0.62123233  -0.49198593   0.34426431 
  236300    4101.1123  0.056913966 1.1024556e+10 2.9774004e-06    24.095335  -0.51086636   0.62516664  -0.49371596   0.33397951 
  236400    4136.2202  0.057417596 1.1047088e+10 2.9713277e-06    25.662457  -0.51262294   0.62636873  -0.49910949   0.34532949 
  236500    4161.2607  0.060513429 1.1047088e+10 2.9713277e-06    28.255292  -0.51139712   0.62378974  -0.50348939   0.36045615 
  236600     4200.238  0.060060432 1.106965e+10 2.9652716e-06    28.161466  -0.51302451   0.62633163  -0.51577983    0.3705867 
  236700    4236.1702  0.059845863 1.1092242e+10 2.959232e-06    28.133404  -0.51423738   0.62733311  -0.52751836   0.38267142 
  236800    4225.7502  0.059410216 1.1092242e+10 2.959232e-06    24.682736  -0.51394635   0.63069319  -0.53463259   0.37169748 
  236900    4192.9737  0.062419417 1.1114866e+10 2.9532087e-06    24.505504  -0.50907497   0.62712826  -0.53225294   0.36609929 
  237000    4205.7834  0.061173848 1.113752e+10 2.9472017e-06    24.252732  -0.51058217    0.6237536  -0.53498541   0.37804303 
  237100    4213.5395  0.056803909 1.113752e+10 2.9472017e-06     21.29517  -0.51410691   0.62478026  -0.53992426   0.37899316 
  237200    4186.1423  0.056566152 1.1160205e+10 2.9412111e-06    21.091565  -0.51123148   0.61881701  -0.53565768   0.38041826 
  237300    4151.6462  0.057260229 1.118292e+10 2.9352366e-06    21.664027  -0.50799597   0.61657672  -0.52694765   0.37143327 
  237400    4103.0626  0.056216774 1.118292e+10 2.9352366e-06    20.744321  -0.50378777   0.61153353   -0.5192778   0.36264208 
  237500    4108.4644  0.051222286 1.1205667e+10 2.9292784e-06     19.67039  -0.50369349   0.61641637  -0.52489993   0.35477585 
  237600    4103.7433  0.055443688 1.1228444e+10 2.9233362e-06    21.170834  -0.50252347   0.61866358  -0.52082018   0.34832067 
  237700    4149.4391   0.05752505 1.1228444e+10 2.9233362e-06     22.82604   -0.5079709   0.62120709  -0.52255534   0.36109064 
  237800    4117.6273  0.063230788 1.1251252e+10 2.9174101e-06    24.670233  -0.50525124   0.61364683  -0.50993264   0.36404697 
  237900    4149.3531  0.060139693 1.1251252e+10 2.9174101e-06    25.470958  -0.51039777   0.62012501  -0.50941757   0.36327093 
  238000    4146.1315  0.060843455 1.1274091e+10 2.9115001e-06    26.293326  -0.51117458   0.61787631  -0.50403051   0.36660489 
  238100    4139.5649  0.061142778 1.1296961e+10 2.9056059e-06    26.831752  -0.50992922   0.61739308  -0.50233903   0.36501069 
  238200    4197.8058  0.057173265 1.1296961e+10 2.9056059e-06    28.398549  -0.51280463   0.62172549  -0.51454357   0.37905488 
  238300    4191.6148  0.059287098 1.1319862e+10 2.8997277e-06    27.606587  -0.51172179    0.6204992  -0.51676083   0.37912886 
  238400    4213.5446  0.056376048 1.1342794e+10 2.8938653e-06    27.238511  -0.51458142   0.62630883  -0.52066815    0.3758675 
  238500    4210.2897  0.054120642 1.1342794e+10 2.8938653e-06    27.866836   -0.5140695   0.62784288  -0.51850202   0.37144828 
  238600    4175.1227  0.055281054 1.1365757e+10 2.8880187e-06      25.6461  -0.51219701   0.62900834  -0.51533356   0.35523069 
  238700    4147.2927  0.055964434 1.138875e+10 2.8821879e-06    24.553167  -0.51082007   0.62445935  -0.51056698   0.35359173 
  238800    4089.6662  0.061447704 1.138875e+10 2.8821879e-06     25.67756  -0.50532775   0.61477578  -0.49567811   0.35073848 
  238900    4090.4089  0.058452576 1.1411775e+10 2.8763727e-06    24.503357  -0.50824593   0.61566306  -0.49361216   0.34921512 
  239000    4057.7395  0.057385454 1.1434831e+10 2.8705732e-06    23.827513  -0.50600833   0.61500341  -0.48741968    0.3377144 
  239100    4043.7343   0.05917563 1.1434831e+10 2.8705732e-06    22.643899  -0.50649169   0.61875043  -0.48456365   0.32453853 
  239200    4069.2547  0.058403662 1.1457917e+10 2.8647892e-06    22.607585  -0.51135943   0.62712726  -0.48475365   0.31743666 
  239300    4081.1038  0.058166268 1.1481035e+10 2.8590208e-06    21.952521  -0.51303933   0.62148189  -0.48799271   0.33364877 
  239400    4095.0955   0.05722379 1.1481035e+10 2.8590208e-06    22.971712  -0.51260673   0.61846376  -0.49124553   0.34532795 
  239500    4080.9755  0.056986651 1.1504184e+10 2.8532678e-06    23.187473  -0.50927369   0.61461524  -0.49184746   0.34764853 
  239600     4094.391  0.051704113 1.1504184e+10 2.8532678e-06    24.033716  -0.50941458   0.61443901  -0.49423234   0.35328609 
  239700    4097.3365  0.053022329 1.1527364e+10 2.8475303e-06    25.991267  -0.50824364   0.60995226  -0.49176362   0.36362527 
  239800    4157.7851  0.057719502 1.1550575e+10 2.8418082e-06    28.059929  -0.51202485   0.61189755  -0.50143894   0.38342228 
  239900    4149.3794  0.062956085 1.1550575e+10 2.8418082e-06    25.644082  -0.51254418   0.61779388   -0.5045033   0.36805109 
  240000    4178.3316  0.062046803 1.1573817e+10 2.8361013e-06    27.598984  -0.51426763   0.61910161   -0.5063501    0.3767636 
  240100    4149.1545   0.05909626 1.159709e+10 2.8304098e-06    28.434807  -0.51130637   0.61161703  -0.49836075   0.38060141 
  240200    4123.9461  0.059296752 1.159709e+10 2.8304098e-06    28.838023  -0.50866279   0.61351391  -0.49261357   0.36680444 
  240300    4158.1842  0.058336881 1.1620395e+10 2.8247334e-06    29.398548  -0.51047255   0.62060608  -0.50065333   0.36576025 
  240400    4193.7098  0.056816754 1.1643731e+10 2.8190723e-06    28.616909  -0.51150586   0.62464008  -0.51491801   0.37148002 
  240500    4174.4092  0.058540631 1.1643731e+10 2.8190723e-06    27.428697  -0.50875047   0.62460181  -0.51662014   0.36396647 
  240600    4179.0481  0.056329147 1.1667097e+10 2.8134262e-06    28.275405  -0.50600124   0.62443911  -0.52146494   0.36612408 
  240700    4161.8699  0.056953733 1.1690496e+10 2.8077952e-06    28.351103  -0.50406272   0.61892516  -0.51844154   0.37064947 
  240800    4151.4274  0.059828457 1.1690496e+10 2.8077952e-06    29.355921   -0.5036758   0.61755544  -0.51203391   0.36934456 
  240900    4186.0877   0.05772379 1.1713925e+10 2.8021793e-06    29.914241  -0.50713708   0.62421508  -0.51686726   0.36935148 
  241000    4150.8689  0.059368678 1.1713925e+10 2.8021793e-06    28.967805  -0.50512888   0.61979209  -0.51003521   0.36454835 
  241100    4201.5877  0.052550246 1.1737386e+10 2.7965783e-06    27.387816   -0.5101598   0.62335734  -0.52455284   0.37720347 
  241200    4203.9317  0.050474037 1.1760878e+10 2.7909922e-06    26.611678  -0.51088063   0.62241057  -0.52638805   0.38006271 
  241300    4170.8869  0.057146357 1.1760878e+10 2.7909922e-06     27.30397  -0.50697471   0.61672147  -0.51925192   0.37870539 
  241400    4144.4027  0.060507837 1.1784401e+10 2.785421e-06    26.961787  -0.50607194   0.61173789  -0.51173446   0.37848502 
  241500    4148.2207  0.058682929 1.1807956e+10 2.7798646e-06    28.970601  -0.50850369   0.62039357  -0.50207957   0.36227598 
  241600    4167.4555  0.058418866 1.1807956e+10 2.7798646e-06    32.439055  -0.50889247   0.62260951  -0.49817789    0.3653078 
  241700    4174.1832  0.062623352 1.1831542e+10 2.7743229e-06    34.707129  -0.50713631   0.61743452  -0.49743891   0.37854297 
  241800    4223.8899  0.059211152 1.1855159e+10 2.768796e-06    32.761787  -0.51258119    0.6162415  -0.51183555   0.40053611 
  241900    4251.4981   0.05687094 1.1855159e+10 2.768796e-06    31.225334  -0.51612883   0.61705834  -0.52016375   0.40972439 
  242000     4248.074  0.055919585 1.1878808e+10 2.7632838e-06    30.535148  -0.51517843   0.62200455  -0.52288518   0.39825681 
  242100    4221.5127  0.051933797 1.1902488e+10 2.7577862e-06     29.12153   -0.5115972   0.62694869  -0.52411469   0.37769249 
  242200     4194.876  0.052622415 1.1902488e+10 2.7577862e-06    31.221133  -0.50627106   0.62495409  -0.51807497   0.37129627 
  242300    4112.1828  0.058521914  1.19262e+10 2.7523031e-06    30.960112  -0.49995182   0.61604073  -0.49928098    0.3570071 
  242400     4130.828  0.053317539 1.1949943e+10 2.7468346e-06    29.823325  -0.50609357   0.61697154  -0.49754587   0.36243656 
  242500    4133.5516  0.054660603 1.1949943e+10 2.7468346e-06    31.754401  -0.50830137   0.62032924  -0.48815792   0.35663751 
  242600    4134.7878  0.056296398 1.1973718e+10 2.7413806e-06    33.600718   -0.5100513   0.61964601  -0.47938258   0.35852175 
  242700    4203.2875  0.055241107 1.1973718e+10 2.7413806e-06    36.152363  -0.51734751    0.6226241  -0.48354645   0.37937238 
  242800    4213.0485  0.057184843 1.1997524e+10 2.735941e-06    35.793718  -0.51762092   0.62835743  -0.48793004   0.37148061 
  242900    4201.3443  0.057412559 1.2021362e+10 2.7305157e-06    33.972795  -0.51526915   0.62666498   -0.4937411   0.37033977 
  243000    4166.9268  0.054247083 1.2021362e+10 2.7305157e-06    29.804115  -0.51095146   0.62266187   -0.5018644   0.36499269 
  243100    4126.2893  0.052747095 1.2045231e+10 2.7251048e-06    25.746536  -0.50687531   0.61591638    -0.506705   0.36281031 
  243200    4143.7403  0.053779427 1.2069132e+10 2.7197082e-06     25.97049  -0.50751229   0.61790291  -0.51157688   0.36560988 
  243300    4105.6793   0.05804159 1.2069132e+10 2.7197082e-06    23.846876  -0.50556991   0.61173498  -0.50711425   0.36325918 
  243400    4180.9459  0.051892137 1.2093065e+10 2.7143259e-06    25.361513  -0.51143152   0.61823605  -0.52006607   0.37956299 
  243500    4178.2445  0.054437853 1.2117029e+10 2.7089577e-06     26.32576  -0.51094909   0.61643721  -0.51702368   0.38218109 
  243600    4212.0652  0.054576286 1.2117029e+10 2.7089577e-06    26.179177  -0.51568191   0.63313578  -0.52109397   0.36131659 
  243700    4189.2705  0.057435821 1.2141024e+10 2.7036037e-06    24.566779  -0.51359278   0.63707783  -0.52136359   0.34428427 
  243800    4204.5405  0.057350411 1.2165052e+10 2.6982637e-06    24.622268  -0.51325365   0.64050434  -0.52789323   0.34327957 
  243900     4181.722  0.054520809 1.2165052e+10 2.6982637e-06    25.188555    -0.507505   0.63460371  -0.52893777   0.34637751 
  244000    4162.5518  0.050267922 1.2189111e+10 2.6929379e-06    25.024181  -0.50212882   0.62659254  -0.53290347   0.35522904 
  244100    4143.7881  0.049664632 1.2189111e+10 2.6929379e-06    25.697705   -0.4983881    0.6217214  -0.53110452   0.35781547 
  244200    4172.3371   0.05095169 1.2213202e+10 2.687626e-06    30.154095  -0.50049368   0.62477605  -0.52431391   0.36279491 
  244300    4194.2896  0.051473363 1.2237324e+10 2.6823281e-06    30.779352  -0.50627772   0.62979931  -0.51918997    0.3611515 
  244400    4147.4515  0.057035215 1.2237324e+10 2.6823281e-06    30.171562  -0.50504863   0.62698864  -0.50515131   0.34847888 
  244500    4160.1109  0.053797326 1.2261478e+10 2.6770441e-06     28.69114   -0.5082658   0.63143039  -0.50810319   0.34436991 
  244600    4130.7899  0.050637261 1.2285664e+10 2.671774e-06    27.009206   -0.5063426   0.62721372  -0.50568019   0.34146453 
  244700    4109.2736    0.0518167 1.2285664e+10 2.671774e-06    28.574342  -0.50157939   0.62106971  -0.50214723   0.34557271 
  244800    4130.7439  0.051922316 1.2309882e+10 2.6665177e-06    27.639037  -0.50352719   0.62496584  -0.50948489   0.34604592 
  244900    4129.1551  0.052098956 1.2334132e+10 2.6612752e-06    26.036186  -0.50587819   0.62286671  -0.50898127    0.3497161 
  245000    4137.4913  0.050692098 1.2334132e+10 2.6612752e-06    26.255879  -0.50745601   0.62165215  -0.50835589   0.35548033 
  245100     4173.368  0.046876622 1.2358413e+10 2.6560464e-06    27.085629  -0.51128678   0.62386724  -0.51207652   0.36505998 
  245200    4114.6583  0.054860494 1.2382726e+10 2.6508313e-06    29.187796  -0.50584901   0.61427338  -0.49364143   0.36159708 
  245300    4197.3644  0.051248811 1.2382726e+10 2.6508313e-06    29.011304   -0.5163459   0.62828522  -0.50523857   0.36545906 
  245400    4186.7848  0.053559282 1.2407071e+10 2.6456298e-06     29.10909  -0.51624151    0.6253623  -0.50098981   0.36727833 
  245500    4197.2894   0.05382674 1.2431448e+10 2.640442e-06    30.910171  -0.51608753   0.62411048  -0.49989506    0.3739717 
  245600    4179.8328   0.05456712 1.2431448e+10 2.640442e-06    32.051553  -0.51468891   0.61926931  -0.49237836   0.37701095 
  245700    4193.4399  0.053250972 1.2455857e+10 2.6352677e-06    32.014302  -0.51510751   0.61909098  -0.49698882   0.38272819 
  245800     4195.386  0.052690831 1.2455857e+10 2.6352677e-06    31.921843   -0.5145134   0.62205327  -0.49925445   0.37743239 
  245900    4188.1891  0.054586529 1.2480298e+10 2.6301069e-06    31.647436  -0.51412121   0.62367371  -0.49807037   0.37128583 
  246000    4186.1143   0.05641576 1.2504771e+10 2.6249596e-06    31.701402   -0.5130537   0.62416935  -0.49927246   0.36945552 
  246100    4192.1473  0.054979898 1.2504771e+10 2.6249596e-06    30.062445  -0.51295584   0.62671575  -0.50688874   0.36661829 
  246200    4175.7863  0.051386684 1.2529275e+10 2.6198257e-06    27.762221  -0.50998862   0.62574458  -0.51360212   0.36216985 
  246300    4137.3723  0.052074916 1.2553812e+10 2.6147052e-06    27.888847  -0.50354357   0.61761436     -0.51129   0.36369546 
  246400    4171.1827  0.053406542 1.2553812e+10 2.6147052e-06    31.050272  -0.50411796   0.62033145  -0.51368651   0.37143512 
  246500    4188.6117  0.054991166 1.2578381e+10 2.609598e-06    33.221563  -0.50427941   0.62239416  -0.51353096    0.3740702 
  246600    4170.9453  0.052195811 1.2602982e+10 2.6045041e-06    32.102403  -0.50227831   0.61944751  -0.51412004   0.37315046 
  246700    4183.4255  0.048378487 1.2602982e+10 2.6045041e-06    27.983669   -0.5054951   0.62350078  -0.52512007   0.36976589 
  246800     4148.461  0.051460094 1.2627615e+10 2.5994235e-06    24.470699  -0.50368666   0.62231691  -0.52587634   0.35843505 
  246900    4149.3341  0.051020785 1.265228e+10 2.594356e-06    24.189306  -0.50355855   0.61825771  -0.52734771   0.36708423 
  247000     4132.825  0.049458107 1.265228e+10 2.594356e-06    24.949706  -0.50346206   0.61761504  -0.51871163   0.36190539 
  247100    4121.8379  0.050463441 1.2676977e+10 2.5893018e-06    25.581373  -0.50421747   0.61810495  -0.51090057   0.35658119 
  247200    4110.3914  0.052778576 1.2676977e+10 2.5893018e-06    25.284232  -0.50531596   0.61647261  -0.50506472   0.35541876 
  247300    4125.4114   0.05307488 1.2701706e+10 2.5842606e-06    25.404224  -0.50786876   0.61662328   -0.5053802   0.36101856 
  247400    4118.1181  0.056012462 1.2726467e+10 2.5792326e-06    26.982271  -0.50744465   0.61461759  -0.49852366   0.36225372 
  247500    4126.2947  0.054801438 1.2726467e+10 2.5792326e-06    27.395065  -0.51014975   0.62049073  -0.49493473   0.35345261 
  247600    4133.1001  0.053613054 1.275126e+10 2.5742175e-06    30.198355  -0.50905727   0.61784996  -0.49122148    0.3615329 
  247700    4168.6842  0.049926155 1.2776086e+10 2.5692155e-06    31.889631  -0.51110227   0.61832161  -0.49583014   0.37456481 
  247800    4146.2732   0.05026064 1.2776086e+10 2.5692155e-06    29.149577   -0.5104442   0.61437386  -0.49679226   0.37382719 
  247900     4104.282  0.049960338 1.2800944e+10 2.5642264e-06    28.406873  -0.50765118   0.61147042  -0.48827525   0.36325088 
  248000    4084.1545   0.04951115 1.2825834e+10 2.5592502e-06     28.37791  -0.50754938   0.61513702  -0.48065555   0.34783132 
  248100    4102.0184  0.049031231 1.2825834e+10 2.5592502e-06     28.12175  -0.51134599   0.61822874  -0.48070204   0.34853196 
  248200    4127.9179  0.049924627 1.2850756e+10 2.5542869e-06    28.535479  -0.51525881   0.62277442  -0.48161031   0.34941829 
  248300    4134.6472  0.051553612 1.2875711e+10 2.5493364e-06    27.673164  -0.51760056   0.62609564  -0.48211896   0.34526953 
  248400    4125.5137  0.055563595 1.2875711e+10 2.5493364e-06    30.396173  -0.51459224   0.62627346  -0.47630332   0.34131305 
  248500    4146.0781  0.053899932 1.2900698e+10 2.5443987e-06    32.983388  -0.51291314   0.62744372  -0.47986732   0.34700747 
  248600    4148.0271  0.051595604 1.2925717e+10 2.5394737e-06    32.527045  -0.50989827   0.62473228    -0.488207   0.35332216 
  248700    4127.0117  0.050921323 1.2925717e+10 2.5394737e-06    31.645432  -0.50450622   0.62085627  -0.49368624   0.35298669 
  248800    4136.8688  0.050506236 1.2950768e+10 2.5345615e-06    32.799414  -0.50198479   0.62154873  -0.49917203   0.35544708 
  248900    4162.1795   0.05027796 1.2950768e+10 2.5345615e-06    32.953596  -0.50558012   0.62405447  -0.50129693   0.36027586 
  249000    4172.2718  0.051931318 1.2975852e+10 2.5296619e-06    32.956822  -0.50991647   0.62478439  -0.49638399   0.36275216 
  249100     4209.759  0.050238934 1.3000968e+10 2.5247749e-06     32.61101  -0.51543952   0.62968866  -0.50089251   0.36746277 
  249200    4186.5312  0.052927692 1.3000968e+10 2.5247749e-06    32.218021  -0.51379693   0.62640508  -0.49632609   0.36504485 
  249300    4180.3187  0.052566387 1.3026117e+10 2.5199005e-06    31.040037  -0.51493212   0.62619547  -0.49518422    0.3630301 
  249400    4144.9597   0.05475624 1.3051298e+10 2.5150387e-06    30.302681  -0.51191423   0.62270103  -0.48971965   0.35627182 
  249500    4187.6002  0.052673917 1.3051298e+10 2.5150387e-06    28.308498  -0.51486241   0.62705311  -0.50659578   0.36413941 
  249600    4181.9779  0.053433145 1.3076511e+10 2.5101893e-06    26.377934  -0.51334095    0.6241249  -0.51343755   0.36791943 
  249700    4160.1219  0.053819029 1.3101757e+10 2.5053524e-06    26.518245   -0.5113689   0.62290075  -0.50844391    0.3618272 
  249800    4148.6707  0.050566453 1.3101757e+10 2.5053524e-06     25.39585  -0.51175359   0.62534954    -0.506606   0.35231229 
  249900    4153.3925  0.048684271 1.3127035e+10 2.5005279e-06    25.541808  -0.51176734   0.62693369  -0.50798608    0.3509282 
  250000    4146.3195  0.052037248 1.3152346e+10 2.4957158e-06    29.007962  -0.50788641   0.62033487  -0.50247982   0.36164825 
Loop time of 282.4 on 4 procs for 250000 steps with 990 atoms

Performance: 7.649 ns/day, 3.138 hours/ns, 885.269 timesteps/s
86.3% CPU use with 4 MPI tasks x 1 OpenMP threads

MPI task timing breakdown:
Section |  min time  |  avg time  |  max time  |%varavg| %total
---------------------------------------------------------------
Pair    | 21.807     | 64.355     | 148.36     | 618.8 | 22.79
Bond    | 0.021932   | 0.023675   | 0.02823    |   1.7 |  0.01
Neigh   | 74.914     | 78.819     | 82.696     |  31.1 | 27.91
Comm    | 44.045     | 127.89     | 166.53     | 433.6 | 45.29
Output  | 2.7939     | 2.8367     | 2.8812     |   1.8 |  1.00
Modify  | 1.5321     | 3.3377     | 7.0697     | 120.0 |  1.18
Other   |            | 5.14       |            |       |  1.82

Nlocal:        247.500 ave         598 max          89 min
Histogram: 2 0 1 0 0 0 0 0 0 1
Nghost:        71.5000 ave         102 max          30 min
Histogram: 1 0 0 0 0 1 0 1 0 1
Neighs:         0.00000 ave           0 max           0 min
Histogram: 4 0 0 0 0 0 0 0 0 0
FullNghs:      3822.00 ave       12630 max           0 min
Histogram: 2 0 1 0 0 0 0 0 0 1

Total # of neighbors = 15288
Ave neighs/atom = 15.442424
Ave special neighs/atom = 0.0000000
Neighbor list builds = 1593
Dangerous builds = 0
delete_atoms group 3
WARNING: Ignoring 'compress yes' for molecular system (src/delete_atoms.cpp:125)
Deleted 665 atoms, new total = 325
write_data data.Si
System init for write_data ...
WARNING: More than one compute ke/atom (src/compute_ke_atom.cpp:55)
WARNING: More than one compute ke/atom (src/compute_ke_atom.cpp:55)
Total wall time: 0:04:42
