LAMMPS (24 Dec 2020)
OMP_NUM_THREADS environment is not set. Defaulting to 1 thread. (src/comm.cpp:94)
  using 1 OpenMP thread(s) per MPI task
variable dt equal 0.0001
variable t index 900 1000 1500
label loop1
variable p index 1 2 5
label loop2
units metal
boundary p p p
atom_style atomic
lattice custom 6.711 a1 0.3671583967 0 0 a2 0.1835791983 0.3179684987 0 a3 0 0 1 basis 0.1 0.1 0.05 basis 0.433 0.433 0.55
Lattice spacing in x,y,z = 3.6960000 2.1338866 6.7110000
region 1 block 10.0 30.0 10.0 60.0 10.0 30.0 units lattice
region 2 cylinder y 20.0 20.0 2.5 27.0 43.0 units lattice
region 3 cylinder y 20.0 20.0 3.2 24.0 43.0 units lattice
region 4 cylinder y 20.0 20.0 2.5 20.0 27.0 units lattice
region 5 cylinder y 20.0 20.0 3.8 44.0 48.0 units lattice
region 6 cylinder y 20.0 20.0 2.5 20.0 43.0 units lattice
region 7 cylinder y 20.0 20.0 4.45 44.0 48.0 units lattice
region 8 cylinder y 20.0 20.2 3.2 20.0 23.0 units lattice
region 9 cylinder y 20.0 20.0 3.2 43.0 44.0 units lattice
region 10 cylinder y 20.0 20.0 3.8 43.0 44.0 units lattice
region 11 cylinder y 20.0 20.0 3.8 48.0 49.0 units lattice
region 12 cylinder y 20.0 20.2 3.8 19.0 20.0 units lattice
create_box 2 1
Created orthogonal box = (36.960000 21.338866 67.110000) to (110.88000 128.03320 201.33000)
  1 by 2 by 2 MPI processor grid
create_atoms 1 region 3
Created 1016 atoms
  create_atoms CPU = 0.001 seconds
lattice custom 6.711 a1 0.3671583967 0 0 a2 0.1835791983 0.3179684987 0 a3 0 0 1 basis 0.2667 0.2667 0.25 basis 0.6 0.6 0.75
Lattice spacing in x,y,z = 3.6960000 2.1338866 6.7110000
create_atoms 1 region 8
Created 161 atoms
  create_atoms CPU = 0.000 seconds
delete_atoms region 6
Deleted 709 atoms, new total = 468
lattice custom 6.711 a1 0.3671583967 0 0 a2 0.1835791983 0.3179684987 0 a3 0 0 1 basis 0.1 0.1 0.05 basis 0.433 0.433 0.55
Lattice spacing in x,y,z = 3.6960000 2.1338866 6.7110000
create_atoms 1 region 7
Created 406 atoms
  create_atoms CPU = 0.000 seconds
#create_atoms 1 region 10
delete_atoms region 5
Deleted 300 atoms, new total = 574
#delete_atoms region 9
mass 1 12.0107
lattice custom 5.4309 a1 1 0 0 a2 0 1 0 a3 0 0 1 basis 0.15 0.15 0.15 basis 0.65 0.65 0.15 basis 0.65 0.15 0.65 basis 0.15 0.65 0.65
Lattice spacing in x,y,z = 5.4309000 5.4309000 5.4309000
create_atoms 2 region 4
Created 95 atoms
  create_atoms CPU = 0.000 seconds
create_atoms 2 region 9
Created 30 atoms
  create_atoms CPU = 0.000 seconds
create_atoms 2 random 94 5628 5
Created 94 atoms
  create_atoms CPU = 0.000 seconds
create_atoms 2 region 11
Created 42 atoms
  create_atoms CPU = 0.000 seconds
lattice custom 5.4309 a1 1 0 0 a2 0 1 0 a3 0 0 1 basis 0.65 0.35 0.35 basis 0.65 0.85 0.85 basis 0.15 0.85 0.35 basis 0.15 0.85 0.0.85
Lattice spacing in x,y,z = 5.4309000 5.4309000 5.4309000
create_atoms 2 region 2
Created 264 atoms
  create_atoms CPU = 0.000 seconds
create_atoms 2 region 12
Created 64 atoms
  create_atoms CPU = 0.000 seconds
mass 2 28.0855
group 1 type 1
574 atoms in group 1
group 2 type 2
589 atoms in group 2
group 3 type 1
574 atoms in group 3
group 3 type 2
1163 atoms in group 3
pair_style kim Tersoff_LAMMPS_ErhartAlbe_2005SiII_SiC__MO_408791041969_003
pair_coeff * * C Si
neighbor 2.5 bin
neigh_modify every 1 delay 100
dump 1 all atom 100 dump.SiC_$t_$p_dt:${dt}
dump 1 all atom 100 dump.SiC_900_$p_dt:${dt}
dump 1 all atom 100 dump.SiC_900_1_dt:${dt}
dump 1 all atom 100 dump.SiC_900_1_dt:0.0001
compute 1 1 pe/atom
compute 2 1 ke/atom
compute 3 2 pe/atom
compute 4 2 ke/atom
compute ape_C 1 reduce ave c_1
compute ake_C 1 reduce ave c_2
compute ape_Si 2 reduce ave c_3
compute ake_Si 2 reduce ave c_4
velocity 3 zero linear
velocity 3 zero angular
fix 1 3 nvt temp 0.001 10.0 0.001 fixedpoint 20.0 35.0 20.0
thermo_style custom step temp press c_ape_C c_ake_C c_ape_Si c_ake_Si
thermo 100
timestep 0.0001
run 1000
WARNING: More than one compute ke/atom (src/compute_ke_atom.cpp:55)
WARNING: More than one compute ke/atom (src/compute_ke_atom.cpp:55)
Neighbor list info ...
  update every 1 steps, delay 100 steps, check yes
  max neighbors/atom: 2000, page size: 100000
  master list distance cutoff = 5.55
  ghost atom cutoff = 5.55
  binsize = 2.775, bins = 27 39 49
  1 neighbor lists, perpetual/occasional/extra = 1 0 0
  (1) pair kim, perpetual
      attributes: full, newton off, ghost, cut 5.55
      pair build: full/bin/ghost
      stencil: full/ghost/bin/3d
      bin: standard
Per MPI rank memory allocation (min/avg/max) = 4.288 | 4.290 | 4.293 Mbytes
Step Temp Press c_ape_C c_ake_C c_ape_Si c_ake_Si 
       0            0    2916.2291  0.081050387            0   0.61957706            0 
     100 3.2026066e-16    2499.1342 -0.091458876 2.9867882e-20   0.16834075 5.2562106e-20 
     200 5.4407234e-17    2216.7371  -0.17326129 4.7388455e-21 -0.085626444 9.2561713e-21 
     300 4.3241532e-17    1993.5487  -0.22478874 3.6015267e-21   -0.2628546 7.5171718e-21 
     400 5.6119291e-17    1794.1282  -0.26128015 4.4463807e-21  -0.39852867 9.9777779e-21 
     500 9.0715256e-17    1600.7691  -0.28843021 6.6867149e-21  -0.50699278 1.661678e-20 
     600 1.6655793e-16    1421.4707  -0.30921163 1.1294562e-20  -0.59597617 3.1466843e-20 
     700 3.3418062e-16    1268.5594  -0.32572612 2.1125583e-20  -0.67094932 6.4631478e-20 
     800 7.1604858e-16     1150.507  -0.33946323 4.3608686e-20  -0.73586151 1.4010071e-19 
     900 1.6008795e-15    1057.7085  -0.35140243 9.5944834e-20  -0.79341208 3.1473722e-19 
    1000 3.6714079e-15    973.07956  -0.36196846 2.1678981e-19  -0.84504783 7.2497313e-19 
Loop time of 0.663656 on 4 procs for 1000 steps with 1163 atoms

Performance: 13.019 ns/day, 1.843 hours/ns, 1506.806 timesteps/s
99.4% CPU use with 4 MPI tasks x 1 OpenMP threads

MPI task timing breakdown:
Section |  min time  |  avg time  |  max time  |%varavg| %total
---------------------------------------------------------------
Pair    | 0.30191    | 0.46554    | 0.61373    |  20.8 | 70.15
Neigh   | 0          | 0          | 0          |   0.0 |  0.00
Comm    | 0.023445   | 0.17147    | 0.33498    |  34.3 | 25.84
Output  | 0.0091934  | 0.0092259  | 0.0093041  |   0.0 |  1.39
Modify  | 0.010237   | 0.011829   | 0.013592   |   1.4 |  1.78
Other   |            | 0.005584   |            |       |  0.84

Nlocal:        290.750 ave         310 max         264 min
Histogram: 1 0 0 1 0 0 0 0 0 2
Nghost:        206.500 ave         220 max         191 min
Histogram: 1 0 0 1 0 0 0 0 1 1
Neighs:         0.00000 ave           0 max           0 min
Histogram: 4 0 0 0 0 0 0 0 0 0
FullNghs:      5482.00 ave        6101 max        5061 min
Histogram: 1 0 1 0 1 0 0 0 0 1

Total # of neighbors = 21928
Ave neighs/atom = 18.854686
Neighbor list builds = 0
Dangerous builds = 0
reset_timestep 0
unfix 1
velocity 3 zero linear
velocity 3 zero angular
fix 1 3 nvt temp 10.0 300 0.001 fixedpoint 20.0 35.0 20.0
thermo_style custom step temp press c_ape_C c_ake_C c_ape_Si c_ake_Si
thermo 100
timestep 0.0001
run 1000
WARNING: More than one compute ke/atom (src/compute_ke_atom.cpp:55)
WARNING: More than one compute ke/atom (src/compute_ke_atom.cpp:55)
Per MPI rank memory allocation (min/avg/max) = 4.788 | 4.790 | 4.793 Mbytes
Step Temp Press c_ape_C c_ake_C c_ape_Si c_ake_Si 
       0 3.6714079e-15    973.07956  -0.36196846 2.1678981e-19  -0.84504783 7.2497313e-19 
     100    94.638847    142.46931  -0.46773826 0.0062097056    -1.339274  0.018082192 
     200    94.365707   -207.21416  -0.55237441 0.0069995286   -1.6158158   0.01724283 
     300    104.57414    -377.7764  -0.62771459  0.010017357   -1.7982572  0.016905099 
     400    127.18269   -411.98425  -0.68401616  0.012978448    -1.924567  0.019784802 
     500    154.58932   -377.95665  -0.72788692  0.016902547   -2.0169333  0.022949572 
     600    189.44855   -313.03208  -0.78007644  0.027371059     -2.07544  0.021637077 
     700    215.81412    -357.0695  -0.83561072  0.034757005   -2.1228396  0.021162686 
     800    242.00829     -398.244  -0.91392125  0.040874793   -2.1696767  0.021880447 
     900    277.17603   -385.17237   -1.0115477  0.050729071   -2.2120932  0.021245217 
    1000     304.3535   -333.94133   -1.0929785  0.058132477   -2.2405563  0.020960852 
Loop time of 0.672263 on 4 procs for 1000 steps with 1163 atoms

Performance: 12.852 ns/day, 1.867 hours/ns, 1487.512 timesteps/s
99.5% CPU use with 4 MPI tasks x 1 OpenMP threads

MPI task timing breakdown:
Section |  min time  |  avg time  |  max time  |%varavg| %total
---------------------------------------------------------------
Pair    | 0.30911    | 0.47776    | 0.62317    |  19.3 | 71.07
Neigh   | 0          | 0          | 0          |   0.0 |  0.00
Comm    | 0.022653   | 0.16793    | 0.3365     |  32.6 | 24.98
Output  | 0.0091287  | 0.0091591  | 0.0092306  |   0.0 |  1.36
Modify  | 0.010412   | 0.011961   | 0.013525   |   1.3 |  1.78
Other   |            | 0.005449   |            |       |  0.81

Nlocal:        290.750 ave         310 max         264 min
Histogram: 1 0 0 1 0 0 0 0 0 2
Nghost:        205.500 ave         220 max         189 min
Histogram: 1 0 0 1 0 0 0 1 0 1
Neighs:         0.00000 ave           0 max           0 min
Histogram: 4 0 0 0 0 0 0 0 0 0
FullNghs:      5473.50 ave        6080 max        5065 min
Histogram: 1 0 1 0 1 0 0 0 0 1

Total # of neighbors = 21894
Ave neighs/atom = 18.825451
Neighbor list builds = 0
Dangerous builds = 0
reset_timestep 0
unfix 1
velocity 3 zero linear
velocity 3 zero angular
fix 1 3 npt temp 300 $t 0.001 iso $p $p 0.01 fixedpoint 20.0 35.0 20.0
fix 1 3 npt temp 300 900 0.001 iso $p $p 0.01 fixedpoint 20.0 35.0 20.0
fix 1 3 npt temp 300 900 0.001 iso 1 $p 0.01 fixedpoint 20.0 35.0 20.0
fix 1 3 npt temp 300 900 0.001 iso 1 1 0.01 fixedpoint 20.0 35.0 20.0
thermo_style custom step temp press c_ape_C c_ake_C c_ape_Si c_ake_Si
thermo 100
timestep ${dt}
timestep 0.0001
run 5000
WARNING: More than one compute ke/atom (src/compute_ke_atom.cpp:55)
WARNING: More than one compute ke/atom (src/compute_ke_atom.cpp:55)
Per MPI rank memory allocation (min/avg/max) = 4.788 | 4.790 | 4.793 Mbytes
Step Temp Press c_ape_C c_ake_C c_ape_Si c_ake_Si 
       0     304.3535   -333.94133   -1.0929785  0.058132477   -2.2405563  0.020960852 
     100    359.49142    -11.82484   -1.1879296  0.070601906    -2.282945  0.022869645 
     200    355.04239   -25.250646   -1.3113188  0.069729597   -2.3178297  0.022585196 
     300    368.89693     -7.70605   -1.4206908  0.067855442   -2.3761438  0.027944655 
     400    362.95269    3.1497083   -1.5552335  0.067113978   -2.4266298  0.027151402 
     500    390.62282    8.6467129   -1.6581401  0.073659064   -2.4827581   0.02782913 
     600    376.44184   -9.7918068   -1.7441075  0.074464869   -2.5096163  0.023427569 
     700    372.94699    70.321159   -1.8598427  0.076054824   -2.5367005  0.020986886 
     800    408.21585   -14.460745   -1.9302434  0.084436908    -2.554939  0.021812145 
     900    445.03299   -19.434536   -2.0975678   0.10031322   -2.5681051  0.015728855 
    1000     441.5189    33.886778    -2.212769  0.096326811   -2.5871091  0.018717617 
    1100     453.6856   -39.242928   -2.3115334   0.10033067   -2.6036246  0.017918341 
    1200    473.85254   -10.706419   -2.4297695   0.10400898   -2.6235649  0.019476458 
    1300    445.16141   -27.268417   -2.5152004  0.097165651   -2.6370285  0.018829013 
    1400    485.56697    45.540537   -2.5538686  0.097129465    -2.656182  0.029168058 
    1500    490.60564   -16.167715    -2.613249  0.097448534   -2.6792137  0.030142021 
    1600    523.80778   0.96551595   -2.6651848   0.10108268   -2.6965454  0.035067267 
    1700    520.27792    26.198806    -2.725554  0.099038113   -2.7168697   0.03615962 
    1800     507.7653   -49.064548   -2.7602575  0.095942859   -2.7248267  0.035985217 
    1900    552.52139    70.130554   -2.7807255  0.097071243   -2.7450693  0.046298774 
    2000    553.33232   -31.625924   -2.8171253  0.091737937   -2.7754417  0.051703054 
    2100    564.90152    31.474834   -2.8495158   0.08188703   -2.8121005  0.064253339 
    2200    584.27979   -70.539462   -2.8994804  0.082724267   -2.8539897  0.068379055 
    2300    564.42876     78.67172   -2.9288686  0.079079889   -2.8715321  0.066868433 
    2400    577.47145   -15.107685   -2.9349133  0.076664005   -2.8822369  0.072548794 
    2500    603.87492   -25.312041   -2.9832145  0.089320146   -2.9092106  0.066948089 
    2600     631.8652    26.279681   -2.9920136  0.079967914   -2.9463944  0.083199921 
    2700    642.12971    15.551034   -3.0016857  0.075204066   -2.9879641  0.090459991 
    2800     643.9299   -14.706457   -3.0443606  0.085743628   -3.0088781  0.080647903 
    2900    642.29526   -16.161613   -3.0488677     0.077028   -3.0316154  0.088724721 
    3000    693.69472     6.052383   -3.0751481  0.096380055   -3.0506941  0.082972828 
    3100    700.49646    81.731127   -3.0953048  0.088727978   -3.0755139  0.092164536 
    3200    694.49542    24.403785   -3.0986127  0.082739919   -3.0899853  0.096469777 
    3300    685.37795   -34.716886   -3.1516848   0.10100498   -3.1062471  0.076344836 
    3400    724.10197   -86.561014   -3.1820201   0.10396974    -3.142499  0.083330551 
    3500    737.33861   -36.352278   -3.2296752   0.11464644   -3.1719281  0.076301211 
    3600    745.27732    8.5362946   -3.2330206   0.10257072   -3.1875401  0.090093846 
    3700    745.65387    97.051639   -3.2596887   0.10131546   -3.2267703  0.091413167 
    3800    752.13836    44.330609   -3.3133855   0.11434427   -3.2566146  0.080369756 
    3900    759.76231   -4.0312639    -3.340744    0.1169826   -3.2842038  0.079742795 
    4000    792.41634    -25.80145     -3.35676   0.11494644   -3.3015672  0.090054169 
    4100    801.70738   -94.826958   -3.3987087   0.11858714   -3.3362996  0.088875486 
    4200    846.40875   -25.348573   -3.4132704   0.12096241   -3.3578861   0.09795996 
    4300    805.90895    10.998962   -3.4472992   0.12556087   -3.3726356  0.083150796 
    4400    826.47775    126.70388   -3.4538368   0.11620008   -3.4019798  0.097518426 
    4500    884.79251    30.007902   -3.4583435   0.11619621   -3.4182982   0.11239298 
    4600    833.41846    44.959783   -3.4819557   0.11389672   -3.4280321   0.10153307 
    4700    877.96651    39.488525    -3.478068   0.10868712   -3.4462494   0.11797014 
    4800    906.19158   -8.5257277   -3.4934446   0.11447697   -3.4571918   0.11952539 
    4900    847.59485   -1.4662084   -3.5111696   0.11133192   -3.4699834   0.10764766 
    5000    906.38488   -31.268962   -3.5480061    0.1351959   -3.4840852  0.099383407 
Loop time of 5.29332 on 4 procs for 5000 steps with 1163 atoms

Performance: 8.161 ns/day, 2.941 hours/ns, 944.587 timesteps/s
99.2% CPU use with 4 MPI tasks x 1 OpenMP threads

MPI task timing breakdown:
Section |  min time  |  avg time  |  max time  |%varavg| %total
---------------------------------------------------------------
Pair    | 2.8342     | 3.8127     | 4.8086     |  48.1 | 72.03
Neigh   | 0.032791   | 0.038137   | 0.045293   |   2.8 |  0.72
Comm    | 0.18537    | 1.2003     | 2.1967     |  87.4 | 22.68
Output  | 0.045507   | 0.045661   | 0.046007   |   0.1 |  0.86
Modify  | 0.155      | 0.17545    | 0.19624    |   4.8 |  3.31
Other   |            | 0.02105    |            |       |  0.40

Nlocal:        290.750 ave         310 max         274 min
Histogram: 1 1 0 0 0 0 0 1 0 1
Nghost:        232.750 ave         242 max         218 min
Histogram: 1 0 0 0 0 0 1 0 1 1
Neighs:         0.00000 ave           0 max           0 min
Histogram: 4 0 0 0 0 0 0 0 0 0
FullNghs:      7100.50 ave        7861 max        6384 min
Histogram: 1 0 0 1 0 1 0 0 0 1

Total # of neighbors = 28402
Ave neighs/atom = 24.421324
Neighbor list builds = 30
Dangerous builds = 9
reset_timestep 0
unfix 1
velocity 3 zero linear
velocity 3 zero angular
velocity 3 create $t 12025
velocity 3 create 900 12025
velocity 3 scale $t
velocity 3 scale 900
fix 1 3 npt temp $t $t 0.001 iso $p $p 0.01 fixedpoint 20.0 35.0 20.0
fix 1 3 npt temp 900 $t 0.001 iso $p $p 0.01 fixedpoint 20.0 35.0 20.0
fix 1 3 npt temp 900 900 0.001 iso $p $p 0.01 fixedpoint 20.0 35.0 20.0
fix 1 3 npt temp 900 900 0.001 iso 1 $p 0.01 fixedpoint 20.0 35.0 20.0
fix 1 3 npt temp 900 900 0.001 iso 1 1 0.01 fixedpoint 20.0 35.0 20.0
thermo_style custom step temp press c_ape_C c_ake_C c_ape_Si c_ake_Si
thermo 100
timestep ${dt}
timestep 0.0001
run 50000
WARNING: More than one compute ke/atom (src/compute_ke_atom.cpp:55)
WARNING: More than one compute ke/atom (src/compute_ke_atom.cpp:55)
Per MPI rank memory allocation (min/avg/max) = 4.793 | 4.795 | 4.797 Mbytes
Step Temp Press c_ape_C c_ake_C c_ape_Si c_ake_Si 
       0          900   -32.637584   -3.5480061   0.11987502   -3.4840852    0.1126859 
     100     987.0787   -37.935257    -3.718864   0.18186072    -3.507607  0.074484643 
     200    932.06523   -99.947683   -3.8095454   0.16940314      -3.5488  0.072596033 
     300    910.25147   -3.6553296   -3.8310121   0.15036264   -3.5852775  0.085588924 
     400     870.8528   -17.433557   -3.9252506   0.16892335   -3.5958619  0.057453891 
     500    931.97013   -5.7368979   -3.9709067   0.17632582   -3.6207507  0.065825403 
     600    948.46849    40.613735   -3.9662601   0.15804398   -3.6516835  0.087848891 
     700    910.47409    74.508161   -4.0384522   0.16161197   -3.6811458  0.074682849 
     800    890.61747    181.68489   -4.0450246   0.15386546   -3.6857864  0.077168467 
     900    878.37147    115.65777   -4.0454572   0.15274788   -3.6862578  0.075134744 
    1000    896.97563    91.238279   -4.0779849   0.14937388   -3.7072849  0.083167051 
    1100     926.1593   -44.253849   -4.1097049   0.15583266   -3.7277231  0.084314846 
    1200    922.15373   -8.7467406   -4.1598022   0.16008901   -3.7379596  0.079145444 
    1300    947.43638     15.03536   -4.1625217   0.15691524   -3.7522095  0.088685685 
    1400    931.42007    34.119525    -4.171718   0.15738357    -3.766028  0.084144986 
    1500    900.54143    119.45722   -4.2032206   0.14919574   -3.7789467  0.084249965 
    1600     913.3248    14.439798   -4.1898703   0.13568929   -3.7893934   0.10067232 
    1700    893.53933   -22.656549   -4.2239221   0.14794525   -3.7904543  0.083683004 
    1800    902.82484     12.36018   -4.2176673   0.13603835   -3.8031215  0.097654562 
    1900    887.19514    53.711495   -4.2657823   0.14492871   -3.8197402  0.085004898 
    2000    898.70019   -42.751602   -4.2881482    0.1474923   -3.8262418  0.085440492 
    2100    940.38847   -103.15143   -4.2759297   0.14047004   -3.8379233   0.10291479 
    2200    878.12129   -36.663743   -4.2945263   0.13886763   -3.8383381  0.088597711 
    2300     896.1475    17.843273   -4.2947365   0.13594943   -3.8501713  0.096038443 
    2400    950.16127    87.028728   -4.3231195   0.15106506   -3.8666773  0.095081754 
    2500    881.06612    22.755904   -4.3260055    0.1310792   -3.8838511   0.09693875 
    2600    875.36022   -106.36283    -4.313425   0.12952429   -3.8889331  0.096999004 
    2700    939.27164     -73.2336   -4.3356052   0.14511542   -3.8968602  0.098102917 
    2800    913.19719 -0.004673228   -4.3381289   0.14067415   -3.8940981  0.095781869 
    2900     936.5577    38.532898   -4.3444669   0.14423259    -3.899679  0.098271188 
    3000    881.27454   -107.19239   -4.3790053   0.13784625   -3.9187969  0.090397188 
    3100    915.62971   -17.653626   -4.3823497   0.13407368   -3.9339798   0.10283456 
    3200     896.8121    94.108292   -4.3947667   0.13919037   -3.9286139  0.093049518 
    3300    923.87826    52.335442   -4.3945799   0.13850133   -3.9377881   0.10062312 
    3400    887.89108   -36.184643   -4.4214671   0.14362579   -3.9371584   0.08645211 
    3500    894.23568   -33.346332   -4.4377079    0.1373219   -3.9511706  0.094213392 
    3600    862.31644   -6.0001846   -4.4293616    0.1254835   -3.9628884  0.097610605 
    3700    889.62066    16.263858   -4.4484181   0.14036187   -3.9542952   0.09007397 
    3800    904.67876    79.500037   -4.4495372   0.14159704   -3.9667702  0.092710205 
    3900    909.66841   -10.429757   -4.4245579   0.12431409   -3.9716594   0.11082542 
    4000    913.56837   -125.57741   -4.4438048   0.13454681   -3.9742733   0.10184782 
    4100    901.95358   -27.561102   -4.4501412   0.13386533   -3.9793111  0.099550063 
    4200    915.96574    91.185935   -4.4508453   0.13552577   -3.9801996   0.10150514 
    4300    870.28046    21.713301   -4.4617017    0.1309844   -3.9822146    0.0942807 
    4400     905.7797   -20.097916   -4.4637049   0.13313496   -3.9929508   0.10123753 
    4500    907.38772    -10.64199   -4.4679476   0.13480524   -3.9968009   0.10001985 
    4600     863.2614    74.945132   -4.4637825    0.1232441   -4.0083564   0.10003395 
    4700    911.27919   -75.367343   -4.4649704   0.12878876   -4.0104925   0.10687546 
    4800    881.14141   -119.20505    -4.465489   0.12655353   -4.0057514   0.10136837 
    4900     897.8625    80.289386   -4.4849751   0.13124421   -4.0107497   0.10106117 
    5000    902.78266    18.878896   -4.5079992    0.1311777    -4.025927   0.10238067 
    5100    919.77582    -45.94775   -4.5001598   0.11900526     -4.02708   0.11857653 
    5200    870.96134    -1.069327   -4.5127817   0.12755299    -4.029442  0.097798353 
    5300    909.20635    62.400649   -4.4989281   0.12679027   -4.0336417   0.10829447 
    5400    913.84807    13.163067   -4.5083824   0.12929175   -4.0372025   0.10704037 
    5500     867.9922   -63.766178   -4.5160196   0.12639283   -4.0404339  0.098171809 
    5600    907.13829   -49.380588   -4.5176378   0.12766246   -4.0399743   0.10691711 
    5700    932.92513    119.38401   -4.5431233   0.14264649   -4.0459306  0.098890555 
    5800    912.39254   -32.129087   -4.5328891   0.13931442   -4.0358988  0.096901774 
    5900    903.71183   -51.767968   -4.5414615    0.1368776   -4.0399172  0.097062873 
    6000    894.51998    19.008162   -4.5564327   0.13718325   -4.0527074  0.094421007 
    6100    913.03816     40.75827   -4.5545385   0.13841905   -4.0484024  0.097938982 
    6200    891.14826   -71.746878    -4.539902    0.1270175   -4.0469316   0.10346804 
    6300    895.96768   -93.739388   -4.5508821   0.13224911   -4.0439998  0.099598663 
    6400     864.8275       72.507   -4.5627519   0.12439959   -4.0579289  0.099307262 
    6500    896.75734    34.331828   -4.5726086    0.1303745   -4.0623038   0.10162691 
    6600    920.20179   -89.221349   -4.5694644   0.13902395   -4.0599574  0.099176273 
    6700    905.95204    22.538425   -4.5799815   0.13285137   -4.0664303   0.10155785 
    6800    925.92677    122.90438   -4.5908215   0.13435005   -4.0692675   0.10519107 
    6900    900.95044   -151.65153   -4.5766448   0.12233079   -4.0639164   0.11053504 
    7000    904.08592   -43.189199   -4.6056286   0.13586714   -4.0663842  0.098142997 
    7100    877.36525    92.130165   -4.6034361   0.12738065   -4.0790899  0.099599354 
    7200    869.45724   -15.326651   -4.6107344   0.12367728   -4.0777142    0.1011918 
    7300    891.47229   -51.196789   -4.6305621   0.13673487   -4.0774178  0.094080776 
    7400    890.72318     26.77122   -4.6270875   0.12814324   -4.0804564   0.10226258 
    7500    914.45456    120.60049   -4.6345266   0.13256539   -4.0845521   0.10400476 
    7600    886.73295    -101.2405   -4.6404273    0.1310659    -4.087035  0.098396802 
    7700    911.28258     -44.2078   -4.6477345   0.13409709   -4.0926993   0.10170318 
    7800    907.64123    64.146935   -4.6398314   0.13200394    -4.095245   0.10281445 
    7900    925.47416   -7.8977047   -4.6583484   0.13955191   -4.0987124   0.10000626 
    8000    911.90476   -62.308137   -4.6651046   0.13509976   -4.1039625   0.10088471 
    8100    922.53975    101.84296   -4.6651055   0.13823568   -4.1005963   0.10054067 
    8200    931.49913    51.865035   -4.6607874   0.13729732   -4.1011701   0.10373986 
    8300    889.16169   -105.17116    -4.664715   0.13027246   -4.0965958  0.099789384 
    8400    896.60575    41.483981   -4.6896589   0.13963859   -4.1032148  0.092560089 
    8500    882.85225    16.787153    -4.677426   0.12933066    -4.105422  0.099098238 
    8600    903.70344    -77.73853   -4.6742404   0.13254423   -4.1049561   0.10128375 
    8700    902.43891    131.80447   -4.6880175   0.13661063   -4.1070983  0.096998439 
    8800    897.30304    48.979484   -4.6948839   0.13393162   -4.1142509  0.098299535 
    8900    877.43171   -97.198792   -4.6935125    0.1288894   -4.1173848  0.098145973 
    9000    899.27975    38.027109   -4.7248736   0.14541971   -4.1177583  0.087608085 
    9100    945.15423    3.5960225   -4.7270189   0.15119958   -4.1209342  0.093673822 
    9200    877.01568   -135.53575   -4.7233113   0.13309583   -4.1240291   0.09394058 
    9300    902.81777    138.66577   -4.7248416   0.13834077   -4.1186626  0.095408978 
    9400     940.2313     21.18441   -4.7285234   0.14598623   -4.1112296  0.097499007 
    9500    897.55591   -84.622284   -4.7478774   0.14040106   -4.1179778  0.092059338 
    9600    902.15736    150.28202     -4.74285   0.13317164   -4.1235165   0.10027806 
    9700    917.13808   -11.223878   -4.7552982   0.13666882   -4.1291829   0.10069016 
    9800    902.95606   -30.015917   -4.7501392   0.12646424   -4.1298123   0.10701832 
    9900     907.5612    8.6517735   -4.7518905   0.12980737   -4.1338462   0.10493468 
   10000    909.61249    51.448107   -4.7585715   0.13101086   -4.1331431   0.10428494 
   10100    888.07109   -72.532054   -4.7675742   0.12538727   -4.1452244   0.10427205 
   10200    874.22393   -75.183426   -4.7746565   0.12378577   -4.1485778   0.10230162 
   10300    908.30776    70.550759   -4.7700852   0.13100701   -4.1354558   0.10395596 
   10400    882.52335   -15.310011   -4.7753826   0.13346303   -4.1336814  0.094987239 
   10500    913.39884   -40.553357   -4.7772448   0.13801011   -4.1383287  0.098429487 
   10600    882.16202    48.517631   -4.7822412   0.13064427   -4.1480412  0.097642065 
   10700    929.21106   -24.770137    -4.781286   0.13917334   -4.1489297   0.10132814 
   10800    903.99494   -94.581585   -4.7843463   0.13458684   -4.1531132  0.099367492 
   10900    913.10305     100.0238   -4.7905642    0.1354665   -4.1588082   0.10083288 
   11000    975.01808     23.02584   -4.7970932   0.14880379   -4.1534903   0.10362414 
   11100    879.47279    -54.37634   -4.8010552   0.13489444   -4.1519282  0.092814363 
   11200    902.73287     29.97582   -4.7931996   0.13240455   -4.1517036   0.10117237 
   11300     911.6357   -1.4452004   -4.7992041   0.13393344   -4.1598787   0.10195272 
   11400    870.27186    -51.76161   -4.8052623   0.12950609   -4.1631224  0.095719171 
   11500    914.90433    104.08572   -4.8018579   0.13379866   -4.1592557    0.1029176 
   11600    891.97193   -58.383511   -4.8091333   0.12798732   -4.1581765   0.10273297 
   11700    894.15565   -26.079935   -4.8216632   0.13333913   -4.1638951  0.098074327 
   11800    931.96325    94.810674   -4.8209367   0.13295328   -4.1717069   0.10809163 
   11900    892.30783   -99.420684    -4.822898   0.12537963   -4.1733993   0.10535991 
   12000    925.90639    72.487692    -4.819697   0.13070615   -4.1731036   0.10873697 
   12100      851.924    50.480457   -4.8355291   0.13172592   -4.1729015  0.088876998 
   12200    890.82264   -38.202137   -4.8377438   0.13190335   -4.1806984  0.098623592 
   12300    907.74871   -35.391079   -4.8514589   0.13260556   -4.1884088   0.10225556 
   12400    913.80303    95.668738   -4.8445892   0.12747296   -4.1823027   0.10880135 
   12500    875.63493   -153.14248   -4.8393572   0.12214808   -4.1825715   0.10425742 
   12600    892.66199   0.30327482   -4.8580801   0.13040082   -4.1821615   0.10055691 
   12700    912.95023    39.430078   -4.8540256    0.1291334   -4.1886582   0.10696573 
   12800    909.69381   -46.932358   -4.8670871   0.13532908   -4.1857399   0.10009742 
   12900    863.37545    7.9257443   -4.8694294   0.12888326    -4.184481  0.094567492 
   13000    903.99939    106.36603   -4.8774167   0.13347141    -4.186826   0.10045565 
   13100    908.87234   -146.95245   -4.8697077   0.12935442   -4.1902544   0.10571044 
   13200    883.85532     77.19495   -4.8692887   0.13214412   -4.1852284   0.09661222 
   13300    886.44943    4.8758306   -4.8844498   0.13473332   -4.1853377  0.094750481 
   13400    871.57326   -54.484436   -4.8817142    0.1241667   -4.1894829   0.10125445 
   13500    917.59256    54.749131   -4.8816041   0.13407035   -4.1881491   0.10333835 
   13600    902.21795    3.4513919    -4.903992   0.13771745   -4.1922787  0.095863464 
   13700    877.96154   -4.4383366   -4.9046799   0.12939262   -4.1957827  0.097790681 
   13800    943.71754    30.280162   -4.8948583   0.13141112   -4.2000973   0.11259196 
   13900    912.28597    -118.3925   -4.8908467    0.1278737   -4.1997199   0.10802396 
   14000    894.65653    139.92527     -4.89256    0.1276703   -4.1946163   0.10372652 
   14100    873.75801   -21.356109    -4.897648   0.12137289   -4.1981562   0.10453424 
   14200    900.85537    -35.81523   -4.9027197   0.13123488   -4.1963885   0.10183347 
   14300    868.49397    65.214723   -4.9015604    0.1266289   -4.2031669  0.098069705 
   14400     897.8875   -23.392563   -4.9154214   0.13572548   -4.2063268  0.096700401 
   14500    903.13365    16.383214   -4.9265383   0.13471895   -4.2105884  0.099019111 
   14600    893.07066   -8.7419548   -4.9120528   0.12848372   -4.2047798    0.1025294 
   14700    897.61999   -36.090347   -4.9171276   0.13453294   -4.1990483  0.097794355 
   14800    904.66032    83.290982   -4.9349807   0.13768652   -4.2039467  0.096516432 
   14900    908.55275   -47.079766   -4.9441524   0.13960243   -4.2037289  0.095641921 
   15000    918.82073   -87.290514   -4.9430213   0.13548385   -4.2161694   0.10227404 
   15100    887.83326    162.12053   -4.9539699   0.13189766   -4.2229061   0.09786682 
   15200    881.90775    -87.44103   -4.9665508   0.13571983   -4.2208346  0.092630928 
   15300     906.1658    8.3991992   -4.9536056   0.13370064   -4.2146717   0.10078472 
   15400    909.15618   -8.9495994   -4.9526775   0.12949779   -4.2211652   0.10564311 
   15500    884.31721    23.135971   -4.9623885   0.12832169   -4.2231111    0.1004551 
   15600    916.71046    33.278389   -4.9656514   0.13899105   -4.2222745   0.09831802 
   15700    889.37072   -87.098814   -4.9878556   0.14157292    -4.225712  0.088830022 
   15800    878.98246     104.0171   -4.9801451   0.13219769    -4.230109  0.095317397 
   15900    954.43029   -38.307715   -4.9663665   0.13048847     -4.23034   0.11622296 
   16000    907.67131   -4.3218998   -4.9808219    0.1306301   -4.2330043   0.10416098 
   16100    889.88013   -12.125117    -4.992641   0.13335671   -4.2318972  0.096966898 
   16200    935.35004    48.208316   -4.9879985   0.13682823   -4.2375057   0.10517902 
   16300    884.95654   -22.980613   -4.9874951   0.13277761   -4.2321879   0.09627569 
   16400    912.77602    24.217251   -4.9858797   0.13537766    -4.236336   0.10083607 
   16500    926.27212    55.778281   -4.9882803   0.13311638   -4.2366038   0.10648139 
   16600    883.14855    -163.2186   -4.9851026   0.13041314   -4.2324311  0.098118886 
   16700    894.94298    85.489839   -4.9826835   0.12839189   -4.2311088   0.10309635 
   16800    924.20667   -58.974444   -4.9908809   0.13431449   -4.2303598   0.10478709 
   16900    923.55352   -41.285466   -4.9836753   0.13279212   -4.2327474   0.10610412 
   17000    942.21972    96.775536   -4.9917055   0.14002325   -4.2388736    0.1038172 
   17100    865.30877   -135.05141   -4.9939825   0.12564105   -4.2427249  0.098220147 
   17200    912.31191     102.4471   -4.9838487   0.12340018   -4.2387844   0.11239017 
   17300    912.42881   -62.846459   -5.0041439   0.13309727   -4.2334594   0.10296984 
   17400    899.19218   -7.6246544   -5.0117551   0.13344861   -4.2355566  0.099251991 
   17500    880.95487    69.868109   -5.0108551   0.12591436   -4.2388882   0.10194369 
   17600    924.60351   -35.746321   -5.0129512   0.13336075   -4.2402208   0.10581773 
   17700    870.55926    14.383197   -5.0165488   0.12708298   -4.2432186  0.098153857 
   17800    886.92553    33.314363   -5.0205649   0.12778559   -4.2489575   0.10164269 
   17900    890.36208   -21.606398   -5.0168583   0.12973784   -4.2412308    0.1006165 
   18000    941.75674    5.6448158   -5.0275001   0.13876982   -4.2490315   0.10492064 
   18100    875.15093    15.504871   -5.0280266   0.12207631   -4.2578482   0.10420393 
   18200    891.38051   -4.9935193   -5.0421713   0.12729586   -4.2606203   0.10325601 
   18300    928.50407   -30.122344   -5.0413135   0.13376858     -4.25828   0.10641497 
   18400    892.35628    107.69632   -5.0425384   0.13160983   -4.2595532  0.099300731 
   18500    908.74573   -164.56567   -5.0386095   0.13695404    -4.252373  0.098272078 
   18600    916.92711    111.25523   -5.0287177   0.13349203   -4.2523167   0.10373224 
   18700    912.55955   -44.206303   -5.0347264   0.13521329   -4.2561973   0.10094105 
   18800     887.1027    29.425376   -5.0427369   0.13154577   -4.2589716  0.098023446 
   18900    852.58521   -39.978004   -5.0546381   0.12734712   -4.2656318  0.093312899 
   19000     899.7733    103.89281   -5.0546292   0.13358657   -4.2669167  0.099265734 
   19100    878.82105    -9.167424   -5.0516778   0.13249524   -4.2622749  0.094986256 
   19200    931.10786   -88.698561   -5.0633429   0.13958705   -4.2682088   0.10140867 
   19300    876.75664    116.25449   -5.0651103   0.12570582    -4.269857   0.10107633 
   19400    901.41595   -123.24794   -5.0781298   0.13406688   -4.2683989  0.099216551 
   19500    863.04801    138.56781   -5.0602517   0.11946134   -4.2591216   0.10366597 
   19600    892.24613   -54.149896   -5.0745984    0.1334408   -4.2605391  0.097488299 
   19700    913.21687    10.161376   -5.0684383    0.1273394   -4.2621337   0.10878204 
   19800    930.42184    44.462982   -5.0787061   0.13755625   -4.2612381   0.10321281 
   19900    918.93109   -85.294227    -5.083888   0.13185545    -4.261918   0.10583818 
   20000    911.32116     165.9642    -5.089193   0.13289843    -4.259486   0.10288116 
   20100    887.42671   -47.401322   -5.0845414   0.12932289   -4.2628255   0.10027234 
   20200    914.63282   -13.685435   -5.0932312   0.13747095   -4.2655774  0.099269592 
   20300    900.85622     76.45769   -5.0957843   0.13290739   -4.2679497   0.10020377 
   20400    878.29242   -85.675782   -5.0967956   0.12904803    -4.263941  0.098210871 
   20500    883.43015    60.523563   -5.0962167   0.12940019    -4.263343  0.099177855 
   20600    906.41579   -2.8376289   -5.0999666   0.13541341   -4.2630952  0.099179311 
   20700    882.22607   -16.701771   -5.0974849   0.12571037   -4.2680391   0.10246666 
   20800    897.23425    75.644145   -5.1031843   0.12985313   -4.2714932   0.10225662 
   20900    905.64635   -157.71033   -5.0977099    0.1262556   -4.2686029   0.10790769 
   21000    903.91565    120.03924    -5.103337   0.13090596   -4.2646814   0.10293442 
   21100    857.23784    10.926709   -5.1042916    0.1238522    -4.263286  0.097905279 
   21200    906.04775   -29.710931   -5.1080079   0.12785416   -4.2698156    0.1064522 
   21300    898.34219    65.485418   -5.1065126   0.12910057   -4.2667971   0.10327254 
   21400     890.7117   -119.89878   -5.1060537    0.1314197   -4.2645813  0.099066636 
   21500    893.43349    204.22001   -5.1031318   0.12383671   -4.2693625   0.10715059 
   21600    866.08156   -140.99828   -5.1160629   0.12532943   -4.2673176  0.098720897 
   21700    897.57424    70.959451   -5.1252688   0.13394814   -4.2670459  0.098352598 
   21800    892.69311   -55.559525    -5.116995   0.13156517   -4.2697509  0.099430139 
   21900    904.91706    93.198727   -5.1152302   0.12958611    -4.276652   0.10447602 
   22000    910.04546    -165.0341    -5.115867   0.12761576   -4.2792329   0.10770398 
   22100    882.22104     90.58983   -5.1306202   0.12965952   -4.2795077  0.098616792 
   22200     900.2488   -9.0479097   -5.1373262   0.13178633   -4.2844766   0.10114139 
   22300    908.87371   -49.034025   -5.1446354   0.12856687   -4.2899837   0.10647828 
   22400     866.3018    36.452565   -5.1445874   0.12607665   -4.2866169  0.098048869 
   22500    935.43648   -89.134667   -5.1340955   0.13410703   -4.2831155   0.10785296 
   22600    885.89853    169.88264   -5.1379872   0.13036074   -4.2851335  0.098871217 
   22700    887.30714   -86.831337   -5.1337007   0.12684314   -4.2828816   0.10265844 
   22800    906.44759    57.931871   -5.1509746   0.13611111    -4.291714  0.098507489 
   22900      890.383   -43.674111   -5.1416736   0.12797975   -4.2896117   0.10233516 
   23000    905.59468    24.677944   -5.1444581   0.12885729   -4.2942552   0.10535908 
   23100    886.09148    61.265656   -5.1508172   0.13076552   -4.2925328  0.098525952 
   23200    890.61618   -107.54412   -5.1636367   0.13963753   -4.2889363  0.091033723 
   23300    906.65711    80.664718   -5.1707521    0.1402441   -4.2952879  0.094533184 
   23400    894.32925   -104.83834   -5.1674628   0.13691934   -4.2885267  0.094629557 
   23500    920.33306    91.672393   -5.1695434   0.14089474   -4.2894812  0.097386603 
   23600     871.7005   -72.822222   -5.1623477   0.13162041   -4.2871534  0.094023006 
   23700    892.77042      42.3534   -5.1752218   0.13792329   -4.2869912  0.093253658 
   23800    890.61049   -8.4754482   -5.1746385   0.13482498   -4.2865739  0.095722266 
   23900    903.05714   -22.432353   -5.1842389    0.1400222   -4.2948694  0.093831413 
   24000    895.19062    86.332547   -5.1801179   0.13553386   -4.2896155  0.096199411 
   24100    900.02507   -153.08163   -5.1774883   0.13628248   -4.2905973  0.096702687 
   24200    898.37182    113.86239   -5.1894723   0.13802536   -4.2903995  0.094582601 
   24300    909.58716   -108.06439   -5.1777167   0.13696628   -4.2871605  0.098474715 
   24400     934.4764    80.083275   -5.1802063   0.14338519    -4.290023  0.098566259 
   24500    899.18112   -50.799685   -5.1961568   0.14242824   -4.2898629  0.090498224 
   24600    866.96478    19.042543   -5.1927374   0.13192437   -4.2963356  0.092519141 
   24700    864.22001    167.14156   -5.1947737   0.13288065   -4.2926412   0.09088727 
   24800    891.50063   -113.79942   -5.1932362   0.13992966   -4.2922329  0.090974581 
   24900    906.12802    102.21636   -5.2017606   0.14320216   -4.2947427  0.091515534 
   25000    901.56048   -85.373668   -5.1876586   0.13169501   -4.2968506   0.10156487 
   25100     912.0979    75.163361   -5.1967503   0.13758166   -4.2946326  0.098515267 
   25200    886.06547   -17.815532   -5.1932915    0.1334606   -4.2918549  0.095892873 
   25300    838.19533   -28.949989   -5.1895368   0.12224654   -4.2900553  0.094614032 
   25400     907.8918    23.250679   -5.2005288   0.13471997    -4.291592   0.10023149 
   25500    936.14823   -9.0947261   -5.1971965   0.13875595   -4.2903952   0.10350394 
   25600    891.17307     16.47502    -5.203454    0.1338087   -4.2930987  0.096856127 
   25700    893.51085   -23.990562   -5.2106132   0.13460734   -4.2939643  0.096673978 
   25800    947.05044    12.848476   -5.2045946   0.13778712   -4.3007497   0.10722826 
   25900    928.20159   -1.4124052   -5.2080908   0.13811922   -4.3006564   0.10209799 
   26000    900.90868   -30.228855    -5.220544   0.13531137   -4.3004714  0.097874392 
   26100    904.48777    21.953532    -5.216567   0.13460425    -4.302546  0.099476209 
   26200    884.36379   -13.146466   -5.2293456   0.13545073   -4.3030632   0.09351949 
   26300    877.05708   -2.0183001   -5.2253067    0.1316783    -4.299346  0.095332566 
   26400      910.119    57.160407   -5.2231312   0.13576186   -4.2990683  0.099784086 
   26500    884.31021    -71.44186   -5.2277706   0.13361967   -4.2972678  0.095290248 
   26600    877.14859    73.224632   -5.2321223   0.13316444   -4.2970151  0.093907615 
   26700    902.94492    -37.91669    -5.226123   0.13075377   -4.2972643   0.10283518 
   26800    887.50112    41.312033   -5.2322323     0.132168   -4.2968386   0.09751866 
   26900    886.86941   -9.7684677   -5.2260328   0.13560572   -4.2936084  0.094007396 
   27000    890.09011    15.095593   -5.2160738   0.13037242   -4.2935287  0.099928729 
   27100    936.48715   -10.222347   -5.2218565     0.133105   -4.3034753    0.1090974 
   27200    894.63837   -18.656505    -5.224193   0.12818539    -4.300542   0.10321991 
   27300    901.43977    41.612313   -5.2357771   0.13112176   -4.3079831   0.10209274 
   27400    903.93258   -27.293641   -5.2377393   0.13196935   -4.3085454   0.10190242 
   27500    840.19349     86.14694   -5.2391051   0.12586871   -4.3024564  0.091593656 
   27600    921.47632   -110.72655   -5.2287337   0.13501749   -4.3021188   0.10340572 
   27700    913.98862    121.70629   -5.2307569   0.13478033   -4.3048444   0.10172741 
   27800    905.09454   -48.840035    -5.229693   0.13359692   -4.3087139   0.10061261 
   27900    877.40565    32.946222   -5.2421782   0.13126977   -4.3121638  0.095819578 
   28000    912.39574    2.6036166   -5.2412008   0.13533717   -4.3100779   0.10077855 
   28100    900.28164   -10.160501    -5.235124   0.13078195   -4.3037028   0.10212856 
   28200    911.56691   -9.1935129   -5.2284669   0.12661079    -4.309376   0.10907134 
   28300    912.06786    28.273744   -5.2375884    0.1357518   -4.3077169   0.10029087 
   28400    899.14267   -31.209445   -5.2389532   0.12926581   -4.3124107   0.10331564 
   28500    944.57476    10.196403   -5.2436349   0.13238169   -4.3162257   0.11186471 
   28600    884.04278    26.247562   -5.2525148    0.1242843   -4.3177987   0.10431969 
   28700    915.83349   -36.350014   -5.2607774   0.13666736    -4.310529    0.1003589 
   28800    885.65473    26.765032   -5.2519337   0.12662445     -4.30718   0.10245019 
   28900    916.74902   -19.093084   -5.2441634   0.12834211   -4.3094979    0.1087056 
   29000    909.15561    14.740348   -5.2527213   0.13326409   -4.3097949   0.10197257 
   29100    893.03127   -9.4542717   -5.2509766   0.12725674   -4.3084851   0.10371508 
   29200    889.19564    2.3801693   -5.2540409   0.12547143   -4.3112239   0.10447681 
   29300    904.34932    17.975893   -5.2584261   0.12797797   -4.3112144   0.10589843 
   29400     894.7136   -49.940491   -5.2539993   0.12885684   -4.3049834   0.10258474 
   29500    933.43873     69.56661   -5.2629909    0.1365745    -4.310257   0.10493888 
   29600    881.83573   -137.64162   -5.2627725   0.12404995   -4.3154568   0.10398525 
   29700    898.36765    99.844778   -5.2749191   0.12913049     -4.31817   0.10324988 
   29800    886.44287   -7.8899244   -5.2674453   0.12713254   -4.3108876   0.10215602 
   29900     917.6658   -21.877792   -5.2611483   0.12992669   -4.3091302   0.10739516 
   30000    921.44942    7.2145393   -5.2672845   0.13122603    -4.308347   0.10709376 
   30100     875.3024   -14.441644   -5.2716893   0.12588109   -4.3103762   0.10053468 
   30200    893.27212    67.005947   -5.2669048   0.12494976   -4.3151416   0.10602474 
   30300    976.47381   -87.296044   -5.2648406   0.13120678   -4.3168587   0.12114423 
   30400    927.62023     88.14422   -5.2620931   0.12413685   -4.3166802   0.11557601 
   30500    877.25074   -111.63422    -5.278883   0.12751326   -4.3122631   0.09944092 
   30600    914.88403    163.01493   -5.2716756   0.12503373   -4.3149134   0.11145413 
   30700    880.50546   -244.58843   -5.2748181   0.12006667   -4.3167121   0.10752786 
   30800    871.16844    72.872668   -5.2871806   0.12448331   -4.3153567   0.10084267 
   30900    907.72766    -32.27597    -5.281539   0.13036199   -4.3117595   0.10443662 
   31000    930.21452     11.52514   -5.2866862   0.13021522   -4.3187824   0.11031401 
   31100    892.82593   -19.242506   -5.2902048   0.12912312   -4.3197073   0.10184388 
   31200    910.38516    25.085055   -5.2886424   0.12794086   -4.3138069   0.10747379 
   31300    914.63444   -34.328442   -5.2884147   0.12411574   -4.3192841   0.11228509 
   31400     876.7931    6.8423714   -5.2916478   0.12044184   -4.3194485   0.10621556 
   31500    904.10998    20.372612    -5.298097   0.12697104   -4.3201817   0.10681868 
   31600     932.0453   -50.685188   -5.2931576   0.12906305   -4.3220584    0.1119037 
   31700     931.8083    45.112833   -5.2981209   0.13348584   -4.3155178   0.10753311 
   31800    893.55153   -75.225053   -5.2929662   0.12518367   -4.3163982   0.10586803 
   31900    940.49971    174.69453    -5.294368   0.13022773   -4.3210817   0.11292464 
   32000    883.78484   -122.99076   -5.2961455   0.12233782   -4.3206328   0.10615082 
   32100    882.20342    70.769522   -5.2991658   0.12534524   -4.3199242    0.1028167 
   32200     946.8504   -61.505948   -5.2953648   0.12978728   -4.3243053   0.11497335 
   32300    901.53169    25.140818   -5.2942016   0.12336094   -4.3295048   0.10967935 
   32400    904.24239   -67.082161   -5.2945268   0.12763444   -4.3289907   0.10620595 
   32500    906.98143    115.04835   -5.2977977   0.12207028   -4.3305091   0.11232688 
   32600    925.04614   -42.894689   -5.2978386   0.12279728   -4.3261633   0.11622506 
   32700    910.02338    31.041978   -5.2985787   0.12431726   -4.3216818   0.11091285 
   32800    900.57265   -92.027281   -5.2996803   0.12009816   -4.3260013   0.11261448 
   32900    911.65373    142.80164   -5.3072515   0.12443406   -4.3269345   0.11121478 
   33000    906.84157   -237.81845   -5.3023426   0.12325981   -4.3264592   0.11113198 
   33100     879.8169     96.27225    -5.299386   0.11793146   -4.3250108    0.1094331 
   33200    897.95579   -47.513153   -5.3074581   0.12506104   -4.3227216   0.10711066 
   33300     906.5489    60.100637   -5.2970357   0.12145237   -4.3218343   0.11281875 
   33400    899.49389   -77.800061   -5.3081923   0.12456222   -4.3286606   0.10798901 
   33500    885.08902    116.96394   -5.2964533   0.11523245   -4.3309308   0.11340781 
   33600    919.02738   -96.216214   -5.3055568   0.12268547   -4.3361907   0.11479918 
   33700    903.32855    26.598072   -5.3037486   0.11997407   -4.3378172   0.11343819 
   33800    903.36937   -44.660893    -5.308682   0.12174857   -4.3365586   0.11171929 
   33900    907.90339    14.690834   -5.3042318   0.11851174   -4.3317392   0.11602991 
   34000    891.87884   -40.721332   -5.3110262   0.11754531   -4.3299239   0.11288531 
   34100    892.56029    40.733529     -5.30994   0.11701463   -4.3299126   0.11357626 
   34200    883.25982     -8.76006   -5.3081105   0.11835307   -4.3308367    0.1099002 
   34300     939.2689    19.431349   -5.3124243   0.12755726   -4.3370173   0.11521323 
   34400    901.18172    -4.709012   -5.3102708   0.12130849   -4.3409846   0.11159029 
   34500    876.48141  -0.90246595   -5.3129815   0.11751414   -4.3402973   0.10898921 
   34600     922.0893   -13.579298   -5.3177762   0.12577701    -4.341363   0.11256719 
   34700    899.29368    9.9734976   -5.3145289   0.12222688   -4.3398263   0.11021382 
   34800    909.24516   -7.4358246   -5.3255799   0.12569501   -4.3394556   0.10937173 
   34900     932.2764    35.205373    -5.319741   0.11951485   -4.3441991   0.12126768 
   35000    890.11486   -26.765045    -5.322888   0.12107189    -4.345698   0.10899871 
   35100    908.47319    13.241726   -5.3189002   0.12237014   -4.3436559   0.11241507 
   35200    867.75828   -32.714614   -5.3195053   0.11494718    -4.345817   0.10926632 
   35300    880.07065     46.83167   -5.3172248   0.11655872   -4.3413883   0.11083558 
   35400    881.93844   -56.347881   -5.3120597   0.11463181   -4.3382498   0.11318972 
   35500     905.6496    62.374957   -5.3139739   0.11799847   -4.3390683   0.11595536 
   35600    914.12907   -26.301299   -5.3197028   0.12425356   -4.3370586   0.11202192 
   35700    861.18494    4.6715262   -5.3184544   0.11620386   -4.3383749   0.10636538 
   35800    895.27126    2.6960896   -5.3206589   0.12214552   -4.3359037   0.10926735 
   35900    926.91449    30.683354   -5.3174765   0.12169828   -4.3418767   0.11777251 
   36000    893.12595    11.444222   -5.3177742   0.11467291   -4.3452919   0.11600259 
   36100     886.4093   -40.331569   -5.3248674   0.11914233   -4.3479049   0.10993418 
   36200    930.30503    43.671039   -5.3191457   0.12080036   -4.3431133   0.11951219 
   36300    873.38326   -47.470468   -5.3276177   0.11839836   -4.3475006   0.10733745 
   36400    904.85589    76.970873   -5.3198294   0.12044352   -4.3451641   0.11337018 
   36500    896.52657   -186.09711   -5.3108567    0.1163141   -4.3426702   0.11527039 
   36600    929.12961    119.31436   -5.3236061   0.12923639   -4.3417567   0.11099126 
   36700    908.43137   -87.803093   -5.3214108   0.12173885   -4.3445857   0.11301962 
   36800    892.68236    84.006862   -5.3278524   0.11951775   -4.3409464   0.11116801 
   36900    885.67205   -74.782539   -5.3343226   0.11970918   -4.3416487   0.10919376 
   37000     918.5141    172.01655   -5.3340316   0.12424945   -4.3415742   0.11314414 
   37100    895.44103   -196.17013   -5.3390657   0.12133264   -4.3461157   0.11010283 
   37200    891.49759    115.20486   -5.3404213   0.11729961   -4.3465982   0.11302754 
   37300    897.24387   -72.144247    -5.336596   0.11962801   -4.3497646   0.11222379 
   37400    945.77553    97.078771   -5.3389894   0.13029924   -4.3434838   0.11420033 
   37500    915.09392   -132.95884   -5.3365675   0.12679982    -4.342665   0.10978655 
   37600    889.32145    182.88776   -5.3316223   0.11841284   -4.3481537   0.11138772 
   37700    898.24719     -102.471     -5.33778   0.12370881    -4.349288   0.10850277 
   37800    900.90562    52.349491   -5.3296801   0.11695191   -4.3468696   0.11576551 
   37900     912.5658   -31.346636   -5.3439496   0.12572488   -4.3502581   0.11018942 
   38000    862.71679    16.410172   -5.3414721   0.11423784   -4.3508012   0.10867197 
   38100    884.65043   -16.926988   -5.3401723   0.11149199   -4.3526585   0.11694116 
   38200    931.15466    11.429743   -5.3428148   0.12286444   -4.3567667   0.11771733 
   38300    906.74132   -34.171026   -5.3412349    0.1214626   -4.3515438   0.11285785 
   38400    892.42007   -11.833803   -5.3454084   0.12220274   -4.3531727   0.10848451 
   38500    952.72327    3.7209615   -5.3499477   0.13153219   -4.3554232   0.11477051 
   38600    884.80165    21.090716   -5.3516553    0.1251833   -4.3521235    0.1036371 
   38700    897.57763   -21.098807   -5.3468009   0.12349747   -4.3457838   0.10853799 
   38800    920.67604    50.864857   -5.3464967   0.12530667   -4.3462502   0.11266516 
   38900    898.17739   -146.99404      -5.3539   0.12532703   -4.3492864   0.10690796 
   39000    889.86815    136.34744   -5.3516597   0.11894808   -4.3541651   0.11100553 
   39100    864.66172   -58.185237   -5.3510638   0.11437595   -4.3511281   0.10903335 
   39200    914.98686    37.987198    -5.347649   0.11995222   -4.3527204   0.11643245 
   39300    898.14077   -44.655388   -5.3511313   0.11922763   -4.3520884   0.11284269 
   39400    898.50465    100.17381   -5.3558143   0.12062805   -4.3526977   0.11157072 
   39500    887.43089   -345.16279   -5.3507762   0.11359414   -4.3557636    0.1156016 
   39600    897.39676    188.44112   -5.3535896   0.11935521   -4.3531738   0.11252862 
   39700     874.2302   -95.872402   -5.3531432   0.11719442   -4.3544022   0.10872671 
   39800    901.85504    60.198454   -5.3563519    0.1193717   -4.3590605   0.11364946 
   39900    901.27047   -77.196802   -5.3573417   0.12177178   -4.3605811   0.11116144 
   40000    879.07818    144.08876   -5.3581984   0.11896345   -4.3641406   0.10823901 
   40100     864.7959    -204.2903   -5.3561866   0.11561471   -4.3592963   0.10786036 
   40200    925.89108    142.71132   -5.3561003   0.12285034   -4.3536328   0.11638881 
   40300    910.92836   -46.696892    -5.355421   0.12443769    -4.353112   0.11102626 
   40400    899.34896    50.231213    -5.349032   0.12267851   -4.3516752   0.10978779 
   40500    875.70571   -36.113681   -5.3522868   0.12015131   -4.3564004   0.10622139 
   40600    941.34678    93.946861   -5.3634947   0.12906509   -4.3586415   0.11427368 
   40700     882.2259   -115.43089   -5.3682438   0.11974167   -4.3556482    0.1082833 
   40800    892.09882    136.60773    -5.357854   0.11522015   -4.3563184   0.11520736 
   40900     902.9167     -131.742   -5.3604231   0.12073205   -4.3510642   0.11259448 
   41000    915.32829    85.020928   -5.3609732   0.12572758   -4.3532281   0.11089124 
   41100     865.1963   -22.890046    -5.369112   0.12364362   -4.3554776   0.10013802 
   41200    904.31808    19.131547   -5.3682091   0.12656244   -4.3577018   0.10726995 
   41300    939.30751    23.490115   -5.3622382    0.1261506   -4.3599259   0.11659391 
   41400    944.52133   -79.802391   -5.3651111   0.12857067   -4.3575786   0.11556505 
   41500    880.79407    69.724419   -5.3651802   0.11928417   -4.3588878   0.10836402 
   41600    913.15894   -109.24335    -5.365802   0.12498724   -4.3569234   0.11105952 
   41700    898.42755    100.85772    -5.358531   0.11964715   -4.3536967   0.11250699 
   41800    890.63018   -61.296428   -5.3559308   0.11736945   -4.3524253   0.11273827 
   41900    927.21454    21.364781   -5.3691726   0.12615293    -4.353518   0.11350783 
   42000    889.33398   -11.206873   -5.3673327   0.12269927   -4.3531174   0.10721365 
   42100    918.50932    8.5537693   -5.3666575   0.12570648   -4.3549429     0.111723 
   42200    874.00864   -22.690494   -5.3626981   0.12019625   -4.3550046   0.10574483 
   42300    861.24122     51.62442   -5.3663048   0.11870436   -4.3611141   0.10394292 
   42400    909.88419   -96.921341   -5.3698179   0.12054174   -4.3575149   0.11455672 
   42500    907.93739     130.0207    -5.373283   0.11955046   -4.3602722    0.1150263 
   42600    909.53937   -119.26213   -5.3754689   0.11966865   -4.3616336   0.11531965 
   42700    899.30811    123.51567   -5.3725006   0.11559199   -4.3609666   0.11668343 
   42800    863.53936   -54.758477   -5.3740923    0.1145047   -4.3563412   0.10862167 
   42900    904.30262    10.795958   -5.3735717   0.11655685   -4.3593354   0.11701678 
   43000    913.53754   -5.5010954   -5.3779977   0.11957132   -4.3592103   0.11643407 
   43100    891.36307    8.7462376   -5.3757838   0.11544437    -4.360886   0.11480122 
   43200    852.77193   -10.279123   -5.3758449   0.11127462   -4.3618641   0.10902369 
   43300    914.52868   -7.7300316   -5.3731682   0.11690992   -4.3641354   0.11928043 
   43400    910.56989    11.594244   -5.3797533   0.11722615   -4.3631175   0.11796273 
   43500    870.57228   -22.831511   -5.3759371   0.10882218    -4.364937   0.11595293 
   43600    917.36849    7.9946066   -5.3768336   0.12129751   -4.3606889   0.11572876 
   43700    944.36281   -11.887072   -5.3742859   0.12407379   -4.3616448   0.11990698 
   43800     888.4903    26.530981   -5.3718113   0.11488613   -4.3594488   0.11461267 
   43900    869.42607   -23.018554   -5.3693824   0.11507661   -4.3505108   0.10956549 
   44000    902.67904    36.648425   -5.3744292   0.12073974   -4.3497304   0.11252639 
   44100    889.78416   -70.511318   -5.3762721    0.1180021   -4.3584598   0.11190599 
   44200    871.55611    78.436506   -5.3790317   0.11628411   -4.3629489   0.10893192 
   44300    918.44999   -96.255356   -5.3777859   0.11993435    -4.359152     0.117333 
   44400    902.58022    143.66781   -5.3761522   0.11923476   -4.3553541   0.11396784 
   44500     875.4548   -204.45948   -5.3745055   0.11338948   -4.3543584   0.11274704 
   44600    930.67161      132.113     -5.37789   0.12075593   -4.3616285   0.11964896 
   44700    912.75464   -71.620027   -5.3729471   0.11927459   -4.3586583   0.11652359 
   44800    924.91088    38.373865   -5.3758929   0.12318708   -4.3568736   0.11581069 
   44900    881.58749   -34.142849   -5.3771397   0.11566997   -4.3569248   0.11208851 
   45000    923.99369    126.31779   -5.3717815   0.11591468   -4.3522464   0.12266399 
   45100    893.89295   -162.91889   -5.3774319   0.11617666   -4.3569249   0.11473273 
   45200    862.55775    116.19463   -5.3787446   0.11320786   -4.3572808   0.10963517 
   45300    924.15344   -72.407302   -5.3744109     0.118896   -4.3582734   0.11979933 
   45400    874.17151     27.65778   -5.3749772   0.11767359    -4.354143   0.10824478 
   45500    889.85272   -12.628132   -5.3708871   0.11440118   -4.3553263    0.1154327 
   45600    912.81691   -12.779811   -5.3780259   0.12025354   -4.3580748   0.11558545 
   45700     906.0045    31.539833   -5.3753477    0.1177128    -4.361258   0.11632426 
   45800    874.81693   -66.707639    -5.374747   0.11102456   -4.3633947   0.11488906 
   45900    876.49386    119.54451   -5.3643056   0.11067644   -4.3575025   0.11565595 
   46000    895.39724   -77.353851   -5.3652546   0.11643482    -4.358082   0.11486475 
   46100    902.93947    59.345596   -5.3726649   0.11837604   -4.3573331    0.1148963 
   46200    891.17783   -4.2236629   -5.3763799   0.11345267    -4.359911   0.11669496 
   46300    887.41504    9.7117275   -5.3770578   0.11682791    -4.363946   0.11244614 
   46400    935.04141   -24.209585   -5.3749133   0.12262214   -4.3720576   0.11894462 
   46500     854.8701    55.916217   -5.3774422   0.11133968   -4.3760169   0.10949535 
   46600    885.20638   -80.951037   -5.3808793   0.11459696   -4.3755751   0.11405704 
   46700    894.46482    128.87994    -5.371599   0.11450335   -4.3716732   0.11650925 
   46800    891.94355   -142.37761   -5.3754182   0.11588109   -4.3657247   0.11452365 
   46900    952.07711    150.78145   -5.3779108   0.12602331   -4.3681492   0.11997433 
   47000    896.30217   -72.913496   -5.3804649   0.11700758   -4.3674219   0.11453734 
   47100    903.94571    67.880307   -5.3799837    0.1195081   -4.3638388   0.11404968 
   47200     927.6799   -86.167145   -5.3738552   0.12080877   -4.3623378   0.11883456 
   47300     926.0683    121.94734   -5.3726054   0.11998263   -4.3588708   0.11922868 
   47400    900.12863   -230.71747   -5.3800534   0.11726126   -4.3625931    0.1152659 
   47500    889.97175    130.05943   -5.3832193   0.11512445   -4.3661229    0.1147582 
   47600    860.31543   -82.974974   -5.3838468   0.11529209   -4.3660285    0.1070322 
   47700    909.99181    65.571252   -5.3808564   0.11719987   -4.3704416   0.11784093 
   47800    891.82439   -61.185415    -5.378688   0.11394643   -4.3732018   0.11637866 
   47900    887.81758    47.148145   -5.3760727   0.11582675   -4.3682842   0.11352445 
   48000    915.34118   -29.879126     -5.37846   0.11965162   -4.3665831   0.11681575 
   48100    864.37358    40.190118   -5.3842381   0.11224695   -4.3705564   0.11103466 
   48200    874.61822   -10.006369   -5.3833787   0.11056418   -4.3749568   0.11528704 
   48300    908.44782      21.1249   -5.3843258   0.11831049   -4.3707643   0.11636486 
   48400     905.5056   -6.8448922   -5.3782996   0.11510133   -4.3678179     0.118742 
   48500    859.81399   -17.738498   -5.3804335    0.1103953   -4.3677893   0.11167642 
   48600    880.81328    44.065145   -5.3814345   0.11409341    -4.366594   0.11342749 
   48700    903.39541   -53.879774   -5.3872218   0.11797567   -4.3728545   0.11540275 
   48800    899.49639    23.476714   -5.3811997   0.11413514   -4.3710529   0.11815118 
   48900    853.80806   -16.597865   -5.3757694   0.10723288   -4.3640079   0.11322673 
   49000    906.32233    40.830771   -5.3828154    0.1140142   -4.3674725   0.12000972 
   49100    967.26332   -55.806958    -5.379174   0.11686603    -4.368488   0.13277102 
   49200    905.42949    71.965896    -5.382073   0.11386526   -4.3662136   0.11992718 
   49300     872.5278   -62.206693   -5.3873759    0.1093427   -4.3660845   0.11594434 
   49400     918.0119    31.425878   -5.3857456   0.11399539   -4.3634551   0.12300899 
   49500    900.35552   -34.706377   -5.3867694   0.11217277   -4.3640704   0.12028267 
   49600    851.02928    41.871971   -5.3844302   0.10293446   -4.3655622   0.11670706 
   49700    905.72769   -97.421012   -5.3841696   0.11205982   -4.3670763   0.12176269 
   49800    934.87085    112.14541   -5.3897648    0.1194276   -4.3711457   0.12201431 
   49900    896.11817   -157.66794   -5.3887171   0.10822364   -4.3811262   0.12305066 
   50000     915.8326    165.67675   -5.3887754    0.1079337   -4.3834441   0.12836057 
Loop time of 88.2588 on 4 procs for 50000 steps with 1163 atoms

Performance: 4.895 ns/day, 4.903 hours/ns, 566.515 timesteps/s
99.1% CPU use with 4 MPI tasks x 1 OpenMP threads

MPI task timing breakdown:
Section |  min time  |  avg time  |  max time  |%varavg| %total
---------------------------------------------------------------
Pair    | 52.559     | 66.609     | 83.092     | 150.2 | 75.47
Neigh   | 0.22464    | 0.25442    | 0.29289    |   5.9 |  0.29
Comm    | 2.1383     | 18.705     | 32.829     | 285.5 | 21.19
Output  | 0.46122    | 0.46276    | 0.46708    |   0.4 |  0.52
Modify  | 1.7362     | 1.9009     | 2.0803     |  11.8 |  2.15
Other   |            | 0.3275     |            |       |  0.37

Nlocal:        290.750 ave         306 max         272 min
Histogram: 1 0 0 0 1 0 0 1 0 1
Nghost:        249.250 ave         258 max         237 min
Histogram: 1 0 0 0 0 1 0 0 1 1
Neighs:         0.00000 ave           0 max           0 min
Histogram: 4 0 0 0 0 0 0 0 0 0
FullNghs:      8086.00 ave        8580 max        7263 min
Histogram: 1 0 0 0 0 0 1 0 1 1

Total # of neighbors = 32344
Ave neighs/atom = 27.810834
Neighbor list builds = 171
Dangerous builds = 8
reset_timestep 0
unfix 1
velocity 3 zero linear
velocity 3 zero angular
fix 1 3 nvt temp $t 300 0.001 fixedpoint 20.0 35.0 20.0
fix 1 3 nvt temp 900 300 0.001 fixedpoint 20.0 35.0 20.0
thermo_style custom step temp press c_ape_C c_ake_C c_ape_Si c_ake_Si
thermo 100
timestep 0.0001
run 5000
WARNING: More than one compute ke/atom (src/compute_ke_atom.cpp:55)
WARNING: More than one compute ke/atom (src/compute_ke_atom.cpp:55)
Per MPI rank memory allocation (min/avg/max) = 4.797 | 4.797 | 4.797 Mbytes
Step Temp Press c_ape_C c_ake_C c_ape_Si c_ake_Si 
       0     915.8326    165.67675   -5.3887754   0.10793359   -4.3834441   0.12836067 
     100    899.54275    26.174067   -5.3927287   0.11050949   -4.3813864   0.12169632 
     200    849.73357    17.552688   -5.3942573   0.10437577   -4.3800541   0.11497204 
     300    859.68195    70.512668   -5.3924358   0.10365606   -4.3887348   0.11821036 
     400    879.73995   -137.78874   -5.3954064   0.11236667   -4.3892756   0.11483655 
     500    840.20079    74.725167   -5.3937888   0.10879765   -4.3877131   0.10823183 
     600    815.19834    -31.43663   -5.3899872   0.10303007   -4.3903702   0.10747668 
     700    833.20837    2.2020024   -5.3994154   0.10746675   -4.3876518   0.10774571 
     800    783.16345   -100.71563   -5.3986458  0.097371093   -4.3912355   0.10482236 
     900    772.66174   -125.92341   -5.4003738  0.092848068    -4.398267   0.10655217 
    1000    791.58979    9.8991196   -5.4027662  0.097165497   -4.3927604   0.10717151 
    1100    739.30371   -43.009444   -5.4060164  0.094322905   -4.3970484   0.09660829 
    1200    787.65539   -81.175909   -5.4123129   0.09776477     -4.40458   0.10558419 
    1300    747.82067   -87.754326      -5.4114  0.091256469   -4.4082649   0.10176854 
    1400    707.05425   -30.102033   -5.4120826   0.08835903   -4.4027042  0.094196383 
    1500    718.24848   -45.017394   -5.4147937  0.090747133    -4.407886  0.094723725 
    1600    737.23681   -40.306283   -5.4115317  0.087870519   -4.4167488   0.10236928 
    1700    657.11998   -35.495715   -5.4169043  0.081690101    -4.418724  0.087961788 
    1800    691.21989    67.958406   -5.4174287   0.08802979   -4.4137068  0.090479333 
    1900    688.67409    55.065173   -5.4159795  0.084378513   -4.4178921  0.093388423 
    2000    685.58246     4.417769   -5.4192637   0.08490145   -4.4224696   0.09209041 
    2100    640.24075   -32.171268   -5.4189601   0.07850417   -4.4203625  0.086762227 
    2200    616.28904   -50.158031   -5.4205768  0.078037206   -4.4207513  0.081109398 
    2300    660.25988    25.371245    -5.420696   0.08368681   -4.4226682  0.086816631 
    2400    612.06429    -50.43378   -5.4280211  0.077024531   -4.4289825  0.081018934 
    2500     609.9192   -57.125784   -5.4264706  0.075335488    -4.431569  0.082117947 
    2600    569.38871    -48.63266   -5.4302295  0.072916232   -4.4306646  0.074139952 
    2700     578.0512   -40.858293   -5.4289589  0.072518227   -4.4361151  0.076736834 
    2800    579.49137   -25.780096   -5.4309265  0.073450999   -4.4375573  0.076195074 
    2900    536.49446   -52.286365   -5.4326597  0.065666565   -4.4418257  0.072816662 
    3000    549.23221    7.2302377   -5.4346534  0.065852099   -4.4439219  0.075884094 
    3100    537.41302     -15.5708   -5.4378345  0.067705301   -4.4413984  0.071064087 
    3200    510.98147   -181.93668   -5.4312672  0.062933861   -4.4391984  0.068973731 
    3300    488.94423   -169.97845   -5.4376918  0.062049076   -4.4418413   0.06421629 
    3400    502.00879   -149.32032   -5.4407663  0.063689523   -4.4441489    0.0659492 
    3500    467.83958   -79.786382   -5.4438081  0.060722694   -4.4459771  0.060127018 
    3600    472.00634    21.577781   -5.4424172  0.058665051   -4.4469504  0.063194821 
    3700    463.33814    22.251965   -5.4440677  0.055653598   -4.4515309  0.063919111 
    3800     435.8687     29.14977   -5.4480328  0.052328754   -4.4524557  0.060154329 
    3900    442.15513    33.942336   -5.4516983  0.054492208    -4.453462  0.059649067 
    4000    419.26641    37.541199   -5.4528665  0.050826889    -4.455942  0.057384213 
    4100    407.21652    24.834866   -5.4507526  0.047825442   -4.4565203  0.057236391 
    4200    394.40392    75.627131   -5.4524555  0.048661518   -4.4584603   0.05315428 
    4300    403.60977    32.014549   -5.4522974  0.048168607   -4.4598149  0.055982213 
    4400    359.30251   -39.576664   -5.4564204  0.044448742   -4.4646537  0.048308596 
    4500     360.8667     24.22828      -5.4583  0.043969739   -4.4668919  0.049174281 
    4600    330.07514    5.1035014   -5.4593988   0.03979826    -4.468314  0.045387402 
    4700    334.79233    52.173695   -5.4595952   0.03984892   -4.4704095  0.046540959 
    4800    327.43635    78.544075   -5.4603946  0.040034293   -4.4710248  0.044484465 
    4900    313.43362    72.986657   -5.4616732  0.039066519   -4.4725657  0.041856772 
    5000    297.45676    36.046356   -5.4608323  0.035604093   -4.4757562  0.041156777 
Loop time of 9.10777 on 4 procs for 5000 steps with 1163 atoms

Performance: 4.743 ns/day, 5.060 hours/ns, 548.982 timesteps/s
99.4% CPU use with 4 MPI tasks x 1 OpenMP threads

MPI task timing breakdown:
Section |  min time  |  avg time  |  max time  |%varavg| %total
---------------------------------------------------------------
Pair    | 5.2716     | 7.0363     | 8.8044     |  55.0 | 77.26
Neigh   | 0.0063125  | 0.0073527  | 0.008454   |   1.1 |  0.08
Comm    | 0.16433    | 1.9328     | 3.6974     | 105.1 | 21.22
Output  | 0.043963   | 0.044143   | 0.044514   |   0.1 |  0.48
Modify  | 0.051297   | 0.059892   | 0.068705   |   2.9 |  0.66
Other   |            | 0.02731    |            |       |  0.30

Nlocal:        290.750 ave         305 max         274 min
Histogram: 1 0 0 0 0 1 1 0 0 1
Nghost:        254.500 ave         266 max         243 min
Histogram: 1 0 1 0 0 0 0 1 0 1
Neighs:         0.00000 ave           0 max           0 min
Histogram: 4 0 0 0 0 0 0 0 0 0
FullNghs:      8280.00 ave        8711 max        7465 min
Histogram: 1 0 0 0 0 0 0 1 1 1

Total # of neighbors = 33120
Ave neighs/atom = 28.478074
Neighbor list builds = 5
Dangerous builds = 0
write_data SiC.data1_$t_$p_dt:${dt}
write_data SiC.data1_900_$p_dt:${dt}
write_data SiC.data1_900_1_dt:${dt}
write_data SiC.data1_900_1_dt:0.0001
System init for write_data ...
WARNING: More than one compute ke/atom (src/compute_ke_atom.cpp:55)
WARNING: More than one compute ke/atom (src/compute_ke_atom.cpp:55)
clear
OMP_NUM_THREADS environment is not set. Defaulting to 1 thread. (src/comm.cpp:94)
  using 1 OpenMP thread(s) per MPI task
next p
jump SELF loop2
units metal
boundary p p p
atom_style atomic
lattice custom 6.711 a1 0.3671583967 0 0 a2 0.1835791983 0.3179684987 0 a3 0 0 1 basis 0.1 0.1 0.05 basis 0.433 0.433 0.55
Lattice spacing in x,y,z = 3.6960000 2.1338866 6.7110000
region 1 block 10.0 30.0 10.0 60.0 10.0 30.0 units lattice
region 2 cylinder y 20.0 20.0 2.5 27.0 43.0 units lattice
region 3 cylinder y 20.0 20.0 3.2 24.0 43.0 units lattice
region 4 cylinder y 20.0 20.0 2.5 20.0 27.0 units lattice
region 5 cylinder y 20.0 20.0 3.8 44.0 48.0 units lattice
region 6 cylinder y 20.0 20.0 2.5 20.0 43.0 units lattice
region 7 cylinder y 20.0 20.0 4.45 44.0 48.0 units lattice
region 8 cylinder y 20.0 20.2 3.2 20.0 23.0 units lattice
region 9 cylinder y 20.0 20.0 3.2 43.0 44.0 units lattice
region 10 cylinder y 20.0 20.0 3.8 43.0 44.0 units lattice
region 11 cylinder y 20.0 20.0 3.8 48.0 49.0 units lattice
region 12 cylinder y 20.0 20.2 3.8 19.0 20.0 units lattice
create_box 2 1
Created orthogonal box = (36.960000 21.338866 67.110000) to (110.88000 128.03320 201.33000)
  1 by 2 by 2 MPI processor grid
create_atoms 1 region 3
Created 1016 atoms
  create_atoms CPU = 0.001 seconds
lattice custom 6.711 a1 0.3671583967 0 0 a2 0.1835791983 0.3179684987 0 a3 0 0 1 basis 0.2667 0.2667 0.25 basis 0.6 0.6 0.75
Lattice spacing in x,y,z = 3.6960000 2.1338866 6.7110000
create_atoms 1 region 8
Created 161 atoms
  create_atoms CPU = 0.000 seconds
delete_atoms region 6
Deleted 709 atoms, new total = 468
lattice custom 6.711 a1 0.3671583967 0 0 a2 0.1835791983 0.3179684987 0 a3 0 0 1 basis 0.1 0.1 0.05 basis 0.433 0.433 0.55
Lattice spacing in x,y,z = 3.6960000 2.1338866 6.7110000
create_atoms 1 region 7
Created 406 atoms
  create_atoms CPU = 0.000 seconds
#create_atoms 1 region 10
delete_atoms region 5
Deleted 300 atoms, new total = 574
#delete_atoms region 9
mass 1 12.0107
lattice custom 5.4309 a1 1 0 0 a2 0 1 0 a3 0 0 1 basis 0.15 0.15 0.15 basis 0.65 0.65 0.15 basis 0.65 0.15 0.65 basis 0.15 0.65 0.65
Lattice spacing in x,y,z = 5.4309000 5.4309000 5.4309000
create_atoms 2 region 4
Created 95 atoms
  create_atoms CPU = 0.000 seconds
create_atoms 2 region 9
Created 30 atoms
  create_atoms CPU = 0.000 seconds
create_atoms 2 random 94 5628 5
Created 94 atoms
  create_atoms CPU = 0.000 seconds
create_atoms 2 region 11
Created 42 atoms
  create_atoms CPU = 0.000 seconds
lattice custom 5.4309 a1 1 0 0 a2 0 1 0 a3 0 0 1 basis 0.65 0.35 0.35 basis 0.65 0.85 0.85 basis 0.15 0.85 0.35 basis 0.15 0.85 0.0.85
Lattice spacing in x,y,z = 5.4309000 5.4309000 5.4309000
create_atoms 2 region 2
Created 264 atoms
  create_atoms CPU = 0.000 seconds
create_atoms 2 region 12
Created 64 atoms
  create_atoms CPU = 0.000 seconds
mass 2 28.0855
group 1 type 1
574 atoms in group 1
group 2 type 2
589 atoms in group 2
group 3 type 1
574 atoms in group 3
group 3 type 2
1163 atoms in group 3
pair_style kim Tersoff_LAMMPS_ErhartAlbe_2005SiII_SiC__MO_408791041969_003
pair_coeff * * C Si
neighbor 2.5 bin
neigh_modify every 1 delay 100
dump 1 all atom 100 dump.SiC_$t_$p_dt:${dt}
dump 1 all atom 100 dump.SiC_900_$p_dt:${dt}
dump 1 all atom 100 dump.SiC_900_2_dt:${dt}
dump 1 all atom 100 dump.SiC_900_2_dt:0.0001
compute 1 1 pe/atom
compute 2 1 ke/atom
compute 3 2 pe/atom
compute 4 2 ke/atom
compute ape_C 1 reduce ave c_1
compute ake_C 1 reduce ave c_2
compute ape_Si 2 reduce ave c_3
compute ake_Si 2 reduce ave c_4
velocity 3 zero linear
velocity 3 zero angular
fix 1 3 nvt temp 0.001 10.0 0.001 fixedpoint 20.0 35.0 20.0
thermo_style custom step temp press c_ape_C c_ake_C c_ape_Si c_ake_Si
thermo 100
timestep 0.0001
run 1000
WARNING: More than one compute ke/atom (src/compute_ke_atom.cpp:55)
WARNING: More than one compute ke/atom (src/compute_ke_atom.cpp:55)
Neighbor list info ...
  update every 1 steps, delay 100 steps, check yes
  max neighbors/atom: 2000, page size: 100000
  master list distance cutoff = 5.55
  ghost atom cutoff = 5.55
  binsize = 2.775, bins = 27 39 49
  1 neighbor lists, perpetual/occasional/extra = 1 0 0
  (1) pair kim, perpetual
      attributes: full, newton off, ghost, cut 5.55
      pair build: full/bin/ghost
      stencil: full/ghost/bin/3d
      bin: standard
Per MPI rank memory allocation (min/avg/max) = 4.288 | 4.290 | 4.293 Mbytes
Step Temp Press c_ape_C c_ake_C c_ape_Si c_ake_Si 
       0            0    2916.2291  0.081050387            0   0.61957706            0 
     100 3.2026066e-16    2499.1342 -0.091458876 2.9867882e-20   0.16834075 5.2562106e-20 
     200 5.4407234e-17    2216.7371  -0.17326129 4.7388455e-21 -0.085626444 9.2561713e-21 
     300 4.3241532e-17    1993.5487  -0.22478874 3.6015267e-21   -0.2628546 7.5171718e-21 
     400 5.6119291e-17    1794.1282  -0.26128015 4.4463807e-21  -0.39852867 9.9777779e-21 
     500 9.0715256e-17    1600.7691  -0.28843021 6.6867149e-21  -0.50699278 1.661678e-20 
     600 1.6655793e-16    1421.4707  -0.30921163 1.1294562e-20  -0.59597617 3.1466843e-20 
     700 3.3418062e-16    1268.5594  -0.32572612 2.1125583e-20  -0.67094932 6.4631478e-20 
     800 7.1604858e-16     1150.507  -0.33946323 4.3608686e-20  -0.73586151 1.4010071e-19 
     900 1.6008795e-15    1057.7085  -0.35140243 9.5944834e-20  -0.79341208 3.1473722e-19 
    1000 3.6714079e-15    973.07956  -0.36196846 2.1678981e-19  -0.84504783 7.2497313e-19 
Loop time of 0.663844 on 4 procs for 1000 steps with 1163 atoms

Performance: 13.015 ns/day, 1.844 hours/ns, 1506.378 timesteps/s
99.3% CPU use with 4 MPI tasks x 1 OpenMP threads

MPI task timing breakdown:
Section |  min time  |  avg time  |  max time  |%varavg| %total
---------------------------------------------------------------
Pair    | 0.32125    | 0.47209    | 0.61266    |  19.5 | 71.11
Neigh   | 0          | 0          | 0          |   0.0 |  0.00
Comm    | 0.024058   | 0.16421    | 0.31461    |  33.1 | 24.74
Output  | 0.0091964  | 0.0092336  | 0.0093075  |   0.0 |  1.39
Modify  | 0.010543   | 0.012471   | 0.014334   |   1.3 |  1.88
Other   |            | 0.005836   |            |       |  0.88

Nlocal:        290.750 ave         310 max         264 min
Histogram: 1 0 0 1 0 0 0 0 0 2
Nghost:        206.500 ave         220 max         191 min
Histogram: 1 0 0 1 0 0 0 0 1 1
Neighs:         0.00000 ave           0 max           0 min
Histogram: 4 0 0 0 0 0 0 0 0 0
FullNghs:      5482.00 ave        6101 max        5061 min
Histogram: 1 0 1 0 1 0 0 0 0 1

Total # of neighbors = 21928
Ave neighs/atom = 18.854686
Neighbor list builds = 0
Dangerous builds = 0
reset_timestep 0
unfix 1
velocity 3 zero linear
velocity 3 zero angular
fix 1 3 nvt temp 10.0 300 0.001 fixedpoint 20.0 35.0 20.0
thermo_style custom step temp press c_ape_C c_ake_C c_ape_Si c_ake_Si
thermo 100
timestep 0.0001
run 1000
WARNING: More than one compute ke/atom (src/compute_ke_atom.cpp:55)
WARNING: More than one compute ke/atom (src/compute_ke_atom.cpp:55)
Per MPI rank memory allocation (min/avg/max) = 4.788 | 4.790 | 4.793 Mbytes
Step Temp Press c_ape_C c_ake_C c_ape_Si c_ake_Si 
       0 3.6714079e-15    973.07956  -0.36196846 2.1678981e-19  -0.84504783 7.2497313e-19 
     100    94.638847    142.46931  -0.46773826 0.0062097056    -1.339274  0.018082192 
     200    94.365707   -207.21416  -0.55237441 0.0069995286   -1.6158158   0.01724283 
     300    104.57414    -377.7764  -0.62771459  0.010017357   -1.7982572  0.016905099 
     400    127.18269   -411.98425  -0.68401616  0.012978448    -1.924567  0.019784802 
     500    154.58932   -377.95665  -0.72788692  0.016902547   -2.0169333  0.022949572 
     600    189.44855   -313.03208  -0.78007644  0.027371059     -2.07544  0.021637077 
     700    215.81412    -357.0695  -0.83561072  0.034757005   -2.1228396  0.021162686 
     800    242.00829     -398.244  -0.91392125  0.040874793   -2.1696767  0.021880447 
     900    277.17603   -385.17237   -1.0115477  0.050729071   -2.2120932  0.021245217 
    1000     304.3535   -333.94133   -1.0929785  0.058132477   -2.2405563  0.020960852 
Loop time of 0.670577 on 4 procs for 1000 steps with 1163 atoms

Performance: 12.884 ns/day, 1.863 hours/ns, 1491.253 timesteps/s
99.5% CPU use with 4 MPI tasks x 1 OpenMP threads

MPI task timing breakdown:
Section |  min time  |  avg time  |  max time  |%varavg| %total
---------------------------------------------------------------
Pair    | 0.30471    | 0.47047    | 0.62177    |  20.1 | 70.16
Neigh   | 0          | 0          | 0          |   0.0 |  0.00
Comm    | 0.022439   | 0.17347    | 0.33897    |  33.2 | 25.87
Output  | 0.0090274  | 0.0090583  | 0.0091209  |   0.0 |  1.35
Modify  | 0.010424   | 0.012031   | 0.013798   |   1.4 |  1.79
Other   |            | 0.005555   |            |       |  0.83

Nlocal:        290.750 ave         310 max         264 min
Histogram: 1 0 0 1 0 0 0 0 0 2
Nghost:        205.500 ave         220 max         189 min
Histogram: 1 0 0 1 0 0 0 1 0 1
Neighs:         0.00000 ave           0 max           0 min
Histogram: 4 0 0 0 0 0 0 0 0 0
FullNghs:      5473.50 ave        6080 max        5065 min
Histogram: 1 0 1 0 1 0 0 0 0 1

Total # of neighbors = 21894
Ave neighs/atom = 18.825451
Neighbor list builds = 0
Dangerous builds = 0
reset_timestep 0
unfix 1
velocity 3 zero linear
velocity 3 zero angular
fix 1 3 npt temp 300 $t 0.001 iso $p $p 0.01 fixedpoint 20.0 35.0 20.0
fix 1 3 npt temp 300 900 0.001 iso $p $p 0.01 fixedpoint 20.0 35.0 20.0
fix 1 3 npt temp 300 900 0.001 iso 2 $p 0.01 fixedpoint 20.0 35.0 20.0
fix 1 3 npt temp 300 900 0.001 iso 2 2 0.01 fixedpoint 20.0 35.0 20.0
thermo_style custom step temp press c_ape_C c_ake_C c_ape_Si c_ake_Si
thermo 100
timestep ${dt}
timestep 0.0001
run 5000
WARNING: More than one compute ke/atom (src/compute_ke_atom.cpp:55)
WARNING: More than one compute ke/atom (src/compute_ke_atom.cpp:55)
Per MPI rank memory allocation (min/avg/max) = 4.788 | 4.790 | 4.793 Mbytes
Step Temp Press c_ape_C c_ake_C c_ape_Si c_ake_Si 
       0     304.3535   -333.94133   -1.0929785  0.058132477   -2.2405563  0.020960852 
     100    359.74899   -10.323469   -1.1881014  0.070674739    -2.282985   0.02286435 
     200    355.48806   -23.725327   -1.3116807   0.06980509   -2.3179625  0.022625276 
     300    369.74695   -3.7206856    -1.421531  0.068033602   -2.3763868  0.027987795 
     400    361.68947   -3.2986698   -1.5557995  0.066717693   -2.4269246  0.027215461 
     500    389.32867    3.3068641   -1.6593034  0.073492361   -2.4833356  0.027661568 
     600     377.6946   -1.0433099   -1.7333319  0.072504082   -2.5106103  0.025657886 
     700    374.48296    67.363836   -1.8447788  0.075345388    -2.538116  0.022069944 
     800    415.82643   -8.3554542    -1.920182  0.086738651    -2.554285  0.021509786 
     900    447.65973    23.258716   -2.0944507   0.10063122   -2.5688399  0.016088795 
    1000    453.03664    1.4250121   -2.2233751   0.10026769   -2.5891249  0.017814232 
    1100    453.79594    23.240995   -2.3270154   0.10090591    -2.606581  0.017385891 
    1200    452.77665  -0.55807079   -2.4271174  0.097143109    -2.625532  0.020792936 
    1300    485.07128    21.026396   -2.5007233   0.10246009   -2.6400879  0.023846787 
    1400    474.69298   -32.850179   -2.5659907  0.095418306   -2.6590622  0.028062674 
    1500     495.5946    17.382556   -2.6129421  0.098171223    -2.681762  0.030709966 
    1600    530.44081    12.499188   -2.6814418   0.10528495   -2.6982546  0.032663498 
[...]
   36400    1457.2884    147.21211    -5.452512   0.18816002    -4.300288   0.18825346 
   36500    1498.7947   -31.079184   -5.4538545   0.19446393   -4.2907381   0.19269456 
   36600    1468.5724   -454.37238   -5.4503324   0.19007966   -4.2879108   0.18926023 
   36700    1542.5196   -228.67673   -5.4487397   0.20493893   -4.2821907   0.19363658 
   36800    1493.5369   -15.545541   -5.4528948   0.19701509   -4.2810123    0.1888676 
   36900    1436.5224    88.021672   -5.4418226   0.18453301   -4.2762833   0.18649259 
   37000    1486.9176    124.46227   -5.4449259   0.19698771   -4.2797874   0.18720628 
   37100    1513.0851    88.511658   -5.4428372   0.19612314   -4.2899992   0.19472179 
   37200    1546.2654   -267.22492   -5.4470984   0.20849928   -4.2879588   0.19112211 
   37300    1447.1435   -165.33294   -5.4432601   0.18773643   -4.2844439   0.18607922 
   37400    1453.7214   -11.154529   -5.4550386   0.19012739   -4.2870714   0.18542659 
   37500      1533.25    67.388455   -5.4548253   0.20081995   -4.2887261   0.19528683 
   37600    1542.0383    195.69111   -5.4520535   0.19631395    -4.295087   0.20191917 
   37700    1557.0275    143.66621   -5.4552642    0.2031537   -4.2962661   0.19907599 
   37800    1505.9358   -141.55418    -5.463546   0.20723233   -4.2938062   0.18207238 
   37900    1467.8673   -91.267734   -5.4773787   0.19842374   -4.3015494   0.18094884 
   38000    1474.0229   -76.709208    -5.469262   0.19271399   -4.3054212   0.18808291 
   38100    1584.6087   -18.159115   -5.4647054   0.21083148   -4.3004244    0.1986272 
   38200    1487.5872     120.5713   -5.4658386   0.19845236   -4.2976803   0.18594969 
   38300     1497.718    327.12634   -5.4642212   0.20081638   -4.3001866   0.18622934 
   38400    1541.3755    48.428515   -5.4697572   0.21256031   -4.3061298   0.18591753 
   38500    1527.9227   -73.065531   -5.4583795   0.19529613   -4.3052743   0.19931145 
   38600    1468.6557   -38.786464   -5.4661246    0.1959484   -4.2997808   0.18356219 
   38700    1546.8918    21.809307   -5.4555753   0.20456719    -4.288902    0.1951138 
   38800    1527.1632    205.76449    -5.465692   0.21253647   -4.2903904   0.18231649 
   38900    1454.1991    194.61404   -5.4760539   0.20077236   -4.2931363   0.17517451 
   39000    1539.4125   -111.82006   -5.4693904   0.20625656    -4.299399   0.19156017 
   39100    1501.5776   -123.18757   -5.4591296   0.19896418   -4.2931589   0.18901858 
   39200    1475.6435   -70.374831   -5.4577881   0.19514651   -4.2887199   0.18612561 
   39300    1522.3693   -3.4343937   -5.4699841   0.20348537   -4.2905144   0.18991461 
   39400    1502.6761    243.40771   -5.4639416    0.1917029   -4.2968504   0.19637507 
   39500    1455.3251    247.12375    -5.478956   0.19498141   -4.3036807   0.18110513 
   39600    1531.2657    31.179083   -5.4717992   0.20656757    -4.299128   0.18917957 
   39700    1448.1452   -54.173233   -5.4557307   0.18268927   -4.2968688   0.19125328 
   39800    1507.7127    -154.2518   -5.4595726   0.19270347    -4.294612   0.19668437 
   39900    1509.3292   -33.704737    -5.468977   0.20108524   -4.2955637   0.18892828 
   40000     1462.949    199.68279   -5.4711218   0.19107469   -4.3010056   0.18685653 
   40100    1428.7197    226.90616   -5.4704849    0.1856482   -4.3034419   0.18341603 
   40200    1559.3314    68.723012   -5.4646843   0.20996912   -4.2963132   0.19302165 
   40300    1475.4041   -65.519849   -5.4586637   0.19313897     -4.29534   0.18802098 
   40400    1476.5621   -45.638382   -5.4668914   0.19607837   -4.2952515   0.18545172 
   40500    1534.4657   -49.331249   -5.4732455   0.20421086   -4.2924314   0.19229227 
   40600    1528.8186   -33.190943   -5.4651265   0.19900171   -4.2851583   0.19592873 
   40700    1492.1391    189.06268    -5.460202   0.18876435   -4.2928342   0.19655175 
   40800    1487.3292    214.44911   -5.4687481   0.18245371   -4.3046219   0.20147513 
   40900    1467.8919   -2.1222945   -5.4691724   0.18541382   -4.2980415    0.1936337 
   41000    1534.5709   -97.039099   -5.4746975   0.20271244   -4.2931508   0.19377937 
   41100     1469.947   -29.536519    -5.465085   0.18942617   -4.2957571    0.1902476 
   41200     1480.416   -85.592978   -5.4769975   0.19416118   -4.2961884   0.18830288 
   41300    1518.1684   -80.699067   -5.4707668   0.20187005    -4.293766   0.19041753 
   41400    1451.6977    49.692534   -5.4800165   0.19467026    -4.298309   0.18048333 
   41500    1500.0485    193.29493   -5.4859914   0.19813584   -4.2914608   0.18943589 
   41600    1574.5943    2.6654885   -5.4857568    0.2129602   -4.2894478   0.19399892 
   41700    1486.6604   -107.01505   -5.4869217   0.19646083    -4.294894   0.18765418 
   41800    1472.0208   -164.23088   -5.4925073   0.19697183   -4.2920911   0.18342295 
   41900    1499.5327   -189.94311    -5.498144   0.19898533   -4.2915537   0.18847652 
   42000    1477.2924    -22.19465   -5.4927021   0.18852522   -4.2882749   0.19299876 
   42100    1512.2266    20.781284   -5.4941213   0.19142598   -4.2951127   0.19908041 
   42200    1533.7313   -6.0995933   -5.5000859   0.20464048   -4.2966438   0.19168634 
   42300    1471.7273    79.946908   -5.4908656   0.19171531   -4.2954163   0.18847076 
   42400    1475.8485   -122.45026   -5.4843652   0.19160466   -4.2915802   0.18962954 
   42500    1479.9622   -240.64095    -5.486763    0.1988477   -4.2890548   0.18361998 
   42600    1452.5542   -21.161628   -5.4962075   0.19320642   -4.2906817   0.18212832 
   42700    1501.1756    139.14036   -5.4890598   0.19390607   -4.2837965   0.19384536 
   42800    1536.8534    74.526147   -5.4972421   0.20951802   -4.2781307   0.18772916 
   42900    1524.7147   -3.1306704   -5.4977706   0.20612464   -4.2805973   0.18794064 
   43000    1456.5773   -51.371434   -5.4972122   0.19578122   -4.2734227   0.18064501 
   43100    1458.3134   -160.70697   -5.4941826   0.19506043   -4.2734539   0.18179015 
   43200    1538.6819   -202.53999   -5.5010612   0.20069283   -4.2762105   0.19679588 
   43300     1504.632    -69.90809   -5.5083406   0.19700189   -4.2794104    0.1917098 
   43400    1473.6522    111.89397   -5.5081007   0.19218103   -4.2871918   0.18850777 
   43500    1531.9511    70.991035   -5.5106219    0.2027336   -4.2822094   0.19309068 
   43600    1528.3401    48.249545   -5.5026155   0.20010443   -4.2823466   0.19473206 
   43700    1444.8334    45.339694   -5.5029143   0.18504395   -4.2831834   0.18811403 
   43800    1492.4745   -254.04153   -5.4989157    0.1914227   -4.2756922   0.19404663 
   43900    1461.0854   -230.40264   -5.5118276   0.19068832    -4.284242   0.18675781 
   44000    1484.6779    28.217608   -5.5128175   0.19792147    -4.277447   0.18572517 
   44100    1536.2888    127.24924   -5.4946568   0.20355575   -4.2602969   0.19339561 
   44200    1543.8365     101.4837   -5.5077044   0.20174436   -4.2741578   0.19708561 
   44300    1494.2371    50.972712   -5.5084583   0.19206653   -4.2838749   0.19386869 
   44400    1511.9972   -160.49733   -5.5055121   0.19172817   -4.2752176    0.1987274 
   44500    1521.1462   -293.66083   -5.5040193   0.19739217   -4.2703163   0.19554075 
   44600    1593.9189   -60.326145    -5.503203   0.20272763   -4.2749948   0.20889885 
   44700    1487.4436    90.853769   -5.5191005   0.19850681   -4.2835273      0.18586 
   44800    1548.7839    137.24575   -5.5023839   0.19536271   -4.2860656   0.20456636 
   44900    1497.3358    90.940653   -5.5167466   0.19405342   -4.2856439   0.19272258 
   45000    1445.7654     17.77648   -5.5182518   0.18517997   -4.2913109   0.18821913 
   45100    1538.6175   -56.836953   -5.5217806   0.20175264   -4.2864235   0.19574664 
   45200    1454.4824    -107.0586   -5.5180175   0.19585881   -4.2843147   0.18003518 
   45300    1492.1392   -337.40366   -5.5114778   0.20043208   -4.2862195   0.18518119 
   45400    1538.5762    53.824236   -5.5195367   0.20213852   -4.2930753   0.19536007 
   45500     1543.006    141.67691   -5.5150751   0.19979079   -4.2927646   0.19877764 
   45600    1464.7862    59.390733   -5.5083986   0.18853177   -4.2891639   0.18980318 
   45700    1472.1055   -117.17451   -5.5130843   0.18996473   -4.2968635   0.19027321 
   45800    1539.8575   -216.42649   -5.5142287   0.20090248   -4.2927911   0.19689138 
   45900    1489.2871    62.672082   -5.5139453   0.19084235   -4.2901682    0.1937994 
   46000    1487.7653    192.49414   -5.5177038   0.18893747   -4.2905392   0.19526768 
   46100    1566.5109    5.2012747    -5.518706   0.20263015   -4.2897318   0.20200454 
   46200    1546.8131   -62.026107   -5.5224658   0.20504102   -4.2824531   0.19463195 
   46300    1476.7059 -0.035385528   -5.5244211    0.1870937   -4.2795087   0.19424425 
   46400    1440.2017    39.467056   -5.5178761   0.18434478   -4.2764343   0.18761428 
   46500    1500.5177    158.90505   -5.5197851   0.19336332    -4.277285   0.19420653 
   46600    1538.5648    60.864469   -5.5149307   0.19939151   -4.2792178    0.1980342 
   46700    1476.9148    -100.3416   -5.5113809   0.19197734   -4.2750512   0.18953826 
   46800    1441.7098   -194.27616   -5.5060393   0.18179268   -4.2753467   0.19048595 
   46900    1503.0493   -47.610461   -5.5171285   0.19141241   -4.2880343   0.19675333 
   47000    1529.2051    27.891333    -5.524486   0.19427535   -4.2899631   0.20063327 
   47100    1603.5045    32.232898   -5.5167842   0.20242005   -4.2809262     0.211643 
   47200    1489.6832   -18.404611   -5.5208879   0.19281209   -4.2813894   0.19198082 
   47300    1473.1183   -183.44065   -5.5107688   0.18196058   -4.2855761   0.19833179 
   47400    1498.4878   -141.75521   -5.5196591   0.19100537   -4.2870984    0.1959868 
   47500     1553.318    56.665857   -5.5239656   0.20574851   -4.2897303    0.1956013 
   47600    1486.4402    125.47482   -5.5258073    0.1930246   -4.2972015   0.19094673 
   47700    1481.4654    60.164785   -5.5289342   0.18994709   -4.2999497   0.19267726 
   47800      1521.68   -77.502964   -5.5228792   0.19623099   -4.3003309   0.19680846 
   47900     1478.141    18.076341   -5.5037107   0.18207609   -4.2920408   0.19950004 
   48000    1517.5663    -26.06753   -5.5130547   0.19304412   -4.2921354   0.19886515 
   48100    1497.3377   -129.48171   -5.5219373   0.19625456   -4.2928065     0.190578 
   48200    1462.0166    -224.8541   -5.5176432   0.18897861    -4.286624   0.18866146 
   48300     1521.438   -39.117703   -5.5194675   0.19420852   -4.2752134   0.19871771 
   48400    1535.6304    85.947102   -5.5195211   0.19366477   -4.2821467   0.20286681 
   48500    1406.5037    213.39458   -5.5180511   0.18196486   -4.2904564   0.18134029 
   48600    1495.9796    198.90684   -5.5207993   0.19263478   -4.2851589   0.19375925 
   48700    1532.0909    50.574464   -5.5253352   0.19564449   -4.2967018   0.20003489 
   48800    1495.2404   -3.4566721   -5.5239319   0.18932543   -4.2972493   0.19679583 
   48900    1448.1277   -64.615033   -5.5185324   0.18914191   -4.2959079    0.1849605 
   49000    1542.2227   -223.59039   -5.5234289   0.19754618   -4.2966814   0.20076534 
   49100    1480.4915   -186.09981   -5.5189088   0.18934775   -4.2910196   0.19301298 
   49200    1499.9246    45.323356   -5.5299601   0.20058994   -4.2848179   0.18701271 
   49300    1504.7493    50.714059   -5.5189316   0.19080061   -4.2945852   0.19778308 
   49400    1440.2119     58.36535    -5.518083   0.18315786   -4.2941544   0.18877355 
   49500    1485.9624    120.04458   -5.5212059   0.19040781   -4.2927154   0.19337504 
   49600    1513.2255    88.530309   -5.5288912   0.20156023   -4.2926526   0.18945899 
   49700    1546.3741   -22.150405   -5.5292223    0.1970067   -4.3028629   0.20234973 
   49800    1470.5705   -173.26042   -5.5238207   0.18599663   -4.3045358    0.1937488 
   49900    1421.1376   -206.92186   -5.5202278   0.18314727   -4.2973289   0.18391977 
   50000    1504.4802    3.5375734   -5.5204494   0.19100463    -4.302679   0.19751562 
Loop time of 96.8465 on 4 procs for 50000 steps with 1163 atoms

Performance: 4.461 ns/day, 5.380 hours/ns, 516.281 timesteps/s
99.5% CPU use with 4 MPI tasks x 1 OpenMP threads

MPI task timing breakdown:
Section |  min time  |  avg time  |  max time  |%varavg| %total
---------------------------------------------------------------
Pair    | 52.982     | 70.304     | 92.34      | 198.2 | 72.59
Neigh   | 0.28252    | 0.34282    | 0.41101    |   8.8 |  0.35
Comm    | 1.5101     | 23.69      | 41.2       | 344.4 | 24.46
Output  | 0.49206    | 0.49359    | 0.49695    |   0.3 |  0.51
Modify  | 1.5145     | 1.7417     | 1.9632     |  15.6 |  1.80
Other   |            | 0.2736     |            |       |  0.28

Nlocal:        290.750 ave         304 max         283 min
Histogram: 2 0 0 1 0 0 0 0 0 1
Nghost:        258.000 ave         277 max         245 min
Histogram: 1 0 1 1 0 0 0 0 0 1
Neighs:         0.00000 ave           0 max           0 min
Histogram: 4 0 0 0 0 0 0 0 0 0
FullNghs:      8511.50 ave        9354 max        7823 min
Histogram: 2 0 0 0 0 0 0 1 0 1

Total # of neighbors = 34046
Ave neighs/atom = 29.274291
Neighbor list builds = 228
Dangerous builds = 16
reset_timestep 0
unfix 1
velocity 3 zero linear
velocity 3 zero angular
fix 1 3 nvt temp $t 300 0.001 fixedpoint 20.0 35.0 20.0
fix 1 3 nvt temp 1500 300 0.001 fixedpoint 20.0 35.0 20.0
thermo_style custom step temp press c_ape_C c_ake_C c_ape_Si c_ake_Si
thermo 100
timestep 0.0001
run 5000
WARNING: More than one compute ke/atom (src/compute_ke_atom.cpp:55)
WARNING: More than one compute ke/atom (src/compute_ke_atom.cpp:55)
Per MPI rank memory allocation (min/avg/max) = 4.797 | 4.797 | 4.797 Mbytes
Step Temp Press c_ape_C c_ake_C c_ape_Si c_ake_Si 
       0    1504.4788    3.5371475   -5.5204494   0.19100895    -4.302679   0.19751105 
     100    1456.7817    40.709019   -5.5197303   0.18593026   -4.3057618   0.19029722 
     200      1444.66   -18.479102   -5.5289329    0.1863772   -4.3122794   0.18677053 
     300    1438.0752    62.453974   -5.5310419   0.18941283   -4.3073175   0.18213301 
     400    1387.9742   -156.83853   -5.5415406   0.18287605    -4.311059   0.17572712 
     500    1339.5301   -31.579802    -5.537522   0.16941824   -4.3085914   0.17648851 
     600    1341.4397   -206.19644   -5.5390745   0.16687406   -4.3131558   0.17945487 
     700    1352.6309   -202.81606     -5.55246   0.17395048    -4.318436   0.17541253 
     800    1273.1702    8.7854968   -5.5459809   0.16579878   -4.3195172   0.16309344 
     900    1328.1611   -63.619407    -5.549523   0.16997889   -4.3227653   0.17304295 
    1000    1250.3693   -27.015641   -5.5534953    0.1595173   -4.3274333   0.16340051 
    1100    1210.0162   -69.437479   -5.5578521   0.15208987   -4.3329921   0.16034839 
    1200    1224.5917   -30.282506   -5.5591363   0.15674354   -4.3348504    0.1595301 
    1300    1212.1453   -145.13255   -5.5601507   0.15424693   -4.3426496    0.1587892 
    1400    1137.0046   -215.21558    -5.565641   0.14436575   -4.3499664   0.14925718 
    1500    1097.8707   -120.20458   -5.5650437   0.14021627   -4.3478215    0.1433215 
    1600    1090.1562   -56.110906   -5.5755355   0.14460066   -4.3535637    0.1370815 
    1700    1130.2928    13.138503   -5.5791997   0.14870525   -4.3610738   0.14331661 
    1800     1096.954   -21.946689   -5.5820409   0.14373587   -4.3596632   0.13965774 
    1900    1034.6065    141.84684   -5.5816493   0.13201412   -4.3678057   0.13518182 
    2000    1022.6271     24.08698   -5.5853627   0.12574043   -4.3770197   0.13824088 
    2100    1018.9497   -7.9634409   -5.5890273   0.12549487   -4.3750023   0.13754241 
    2200    940.36754   -88.282135     -5.59733   0.12065574   -4.3748097   0.12221916 
    2300    921.33241   -231.90599   -5.5927819   0.11122076   -4.3805669   0.12655972 
    2400    958.46967   -44.632642   -5.5993035   0.11797086   -4.3849701   0.12945186 
    2500    914.45907    4.5585139   -5.5962197   0.11362852   -4.3840956   0.12246051 
    2600    883.66621   -98.705911   -5.6063666    0.1140755   -4.3896013   0.11417246 
    2700    843.42585   -159.07118   -5.6033885   0.10384658   -4.3981774   0.11387923 
    2800    869.55546   -44.057078   -5.6128604   0.11132474   -4.4022338   0.11325481 
    2900    809.28679    28.612682   -5.6150251   0.10266042   -4.4102081   0.10632942 
    3000    770.42509   -93.573366    -5.617145  0.096347387   -4.4140101    0.1025716 
    3100    734.73664   -86.500098   -5.6203803   0.09393032    -4.415157  0.095826233 
    3200    738.96425    -202.4091   -5.6203257  0.092845753    -4.414403  0.097961259 
    3300    670.39473   -51.038604   -5.6245826  0.087484503   -4.4153468   0.08570013 
    3400    705.30688    2.8348942   -5.6296976  0.088671079   -4.4239959  0.093446686 
    3500    658.74029    13.152977   -5.6357578  0.082590094   -4.4298145  0.087497909 
    3600    675.01134    65.607086   -5.6307995  0.084882433   -4.4324412  0.089413213 
    3700    591.21049    51.179072   -5.6376992  0.077310534   -4.4328978  0.075422307 
    3800    587.40159   -62.744362   -5.6419507  0.073689665    -4.437642   0.07797966 
    3900    568.11163   -19.392602    -5.647136  0.071152489   -4.4397676  0.075533109 
    4000    536.30823    -105.4163   -5.6494581  0.068334683   -4.4418563  0.070169002 
    4100    508.02996   -35.831607   -5.6490351  0.063949374   -4.4439103  0.067231418 
    4200    499.62336   -45.609555   -5.6522443  0.061834873   -4.4495149  0.067148311 
    4300    455.81167   -59.530166   -5.6559779  0.056657689   -4.4522209  0.061021275 
    4400    451.50358   -5.6471867     -5.66077  0.056078736   -4.4584248  0.060486882 
    4500     436.7722    60.572301   -5.6616823   0.05555744   -4.4617255  0.057238269 
    4600    401.42578    47.169723   -5.6656239  0.052254786   -4.4649782  0.051443158 
    4700    362.75996   -59.924114    -5.666074  0.045163782   -4.4695032  0.048493446 
    4800    357.26731   -105.11557   -5.6674771  0.043338567   -4.4729698  0.048871502 
    4900    320.61765   -33.479358   -5.6695399  0.038980418   -4.4760296  0.043772672 
    5000    303.20355   -10.188949   -5.6731374  0.038057561   -4.4786258  0.040231276 
Loop time of 10.0336 on 4 procs for 5000 steps with 1163 atoms

Performance: 4.306 ns/day, 5.574 hours/ns, 498.326 timesteps/s
99.5% CPU use with 4 MPI tasks x 1 OpenMP threads

MPI task timing breakdown:
Section |  min time  |  avg time  |  max time  |%varavg| %total
---------------------------------------------------------------
Pair    | 5.7887     | 7.6262     | 9.7413     |  66.3 | 76.01
Neigh   | 0.0087671  | 0.010774   | 0.012736   |   1.6 |  0.11
Comm    | 0.14637    | 2.2631     | 4.1012     | 121.8 | 22.56
Output  | 0.045723   | 0.04589    | 0.046224   |   0.1 |  0.46
Modify  | 0.050407   | 0.060492   | 0.070026   |   3.2 |  0.60
Other   |            | 0.0271     |            |       |  0.27

Nlocal:        290.750 ave         306 max         284 min
Histogram: 2 0 1 0 0 0 0 0 0 1
Nghost:        262.000 ave         284 max         249 min
Histogram: 2 0 0 0 1 0 0 0 0 1
Neighs:         0.00000 ave           0 max           0 min
Histogram: 4 0 0 0 0 0 0 0 0 0
FullNghs:      8737.50 ave        9672 max        8021 min
Histogram: 2 0 0 0 0 0 1 0 0 1

Total # of neighbors = 34950
Ave neighs/atom = 30.051591
Neighbor list builds = 7
Dangerous builds = 0
write_data SiC.data1_$t_$p_dt:${dt}
write_data SiC.data1_1500_$p_dt:${dt}
write_data SiC.data1_1500_5_dt:${dt}
write_data SiC.data1_1500_5_dt:0.0001
System init for write_data ...
WARNING: More than one compute ke/atom (src/compute_ke_atom.cpp:55)
WARNING: More than one compute ke/atom (src/compute_ke_atom.cpp:55)
clear
OMP_NUM_THREADS environment is not set. Defaulting to 1 thread. (src/comm.cpp:94)
  using 1 OpenMP thread(s) per MPI task
next p
jump SELF loop2
next t
jump SELF loop1
print "Done!!!"
Done!!!
Total wall time: 0:16:13
