LAMMPS (29 Sep 2021 - Update 2)
OMP_NUM_THREADS environment is not set. Defaulting to 1 thread. (src/comm.cpp:98)
  using 1 OpenMP thread(s) per MPI task
variable dt equal 0.0001
variable t index 900 1000 1500
label loop1
units metal
boundary m m m
atom_style atomic
lattice custom 6.711 a1 0.3671583967 0 0 a2 0.1835791983 0.3179684987 0 a3 0 0 1 basis 0.1 0.1 0.05 basis 0.433 0.433 0.55
Lattice spacing in x,y,z = 3.6960000 2.1338866 6.7110000
region 1 block 0.0 40.0 0.0 40.0 0.0 20.0 units lattice
region 2 block 10.0 20.0 10.0 30.0 9.0 10.0 units lattice
region 3 block 20.0 30.0 10.0 30.0 9.0 10.0 units lattice
region 4 block 10.0 20.0 10.0 30.0 10.0 10.5 units lattice
region 5 block 20.0 30.0 10.0 30.0 10.0 10.5 units lattice
create_box 2 1
Created orthogonal box = (0.0000000 0.0000000 0.0000000) to (147.84000 85.355464 134.22000)
  2 by 1 by 2 MPI processor grid
create_atoms 1 region 4
Created 300 atoms
  using lattice units in orthogonal box = (0.0000000 0.0000000 0.0000000) to (147.84000 85.355464 134.22000)
  create_atoms CPU = 0.002 seconds
lattice custom 6.711 a1 0.3671583967 0 0 a2 0.1835791983 0.3179684987 0 a3 0 0 1 basis 0.2667 0.2667 0.25 basis 0.6 0.6 0.75
Lattice spacing in x,y,z = 3.6960000 2.1338866 6.7110000
create_atoms 1 region 5
Created 300 atoms
  using lattice units in orthogonal box = (0.0000000 0.0000000 0.0000000) to (147.84000 85.355464 134.22000)
  create_atoms CPU = 0.003 seconds
mass 1 12.0107
lattice custom 5.4309 a1 1 0 0 a2 0 1 0 a3 0 0 1 basis 0.15 0.15 0.15 basis 0.65 0.65 0.15 basis 0.65 0.15 0.65 basis 0.15 0.65 0.65
Lattice spacing in x,y,z = 5.4309000 5.4309000 5.4309000
create_atoms 2 region 2
Created 312 atoms
  using lattice units in orthogonal box = (0.0000000 0.0000000 0.0000000) to (147.84000 85.355464 134.22000)
  create_atoms CPU = 0.001 seconds
lattice custom 5.4309 a1 1 0 0 a2 0 1 0 a3 0 0 1 basis 0.65 0.35 0.35 basis 0.65 0.85 0.85 basis 0.15 0.85 0.35 basis 0.15 0.85 0.0.85
Lattice spacing in x,y,z = 5.4309000 5.4309000 5.4309000
create_atoms 2 region 3
Created 308 atoms
  using lattice units in orthogonal box = (0.0000000 0.0000000 0.0000000) to (147.84000 85.355464 134.22000)
  create_atoms CPU = 0.001 seconds
mass 2 28.0855
group 1 type 1
600 atoms in group 1
group 2 type 2
620 atoms in group 2
group 3 type 1
600 atoms in group 3
group 3 type 2
1220 atoms in group 3
pair_style kim Tersoff_LAMMPS_ErhartAlbe_2005SiII_SiC__MO_408791041969_003
pair_coeff * * C Si
neighbor 2.5 bin
neigh_modify every 1 delay 100
dump 1 all atom 100 dump.SiC_$t_dt:${dt}
dump 1 all atom 100 dump.SiC_900_dt:${dt}
dump 1 all atom 100 dump.SiC_900_dt:0.0001
compute 1 1 pe/atom
compute 2 1 ke/atom
compute 3 2 pe/atom
compute 4 2 ke/atom
compute ape_C 1 reduce ave c_1
compute ake_C 1 reduce ave c_2
compute ape_Si 2 reduce ave c_3
compute ake_Si 2 reduce ave c_4
velocity 3 zero linear
velocity 3 zero angular
fix 1 3 nvt temp 0.001 10 0.001
thermo_style custom step temp press c_ape_C c_ake_C c_ape_Si c_ake_Si
thermo 100
timestep 0.0001
run 1000

CITE-CITE-CITE-CITE-CITE-CITE-CITE-CITE-CITE-CITE-CITE-CITE-CITE

Your simulation uses code contributions which should be cited:

- OpenKIM: https://doi.org/10.1007/s11837-011-0102-6

@Article{tadmor:elliott:2011,
 author = {E. B. Tadmor and R. S. Elliott and J. P. Sethna and R. E. Miller and C. A. Becker},
 title = {The potential of atomistic simulations and the {K}nowledgebase of {I}nteratomic {M}odels},
 journal = {{JOM}},
 year =    2011,
 volume =  63,
 number =  17,
 pages =   {17},
 doi =     {10.1007/s11837-011-0102-6}
}

- OpenKIM potential: https://openkim.org/cite/MO_408791041969_003#item-citation

@Comment
{
\documentclass{article}
\usepackage{url}
\begin{document}
This Model originally published in \cite{MO_408791041969_003a} is archived in OpenKIM~\cite{MO_408791041969_003, MD_077075034781_004, tadmor:elliott:2011, elliott:tadmor:2011}.
\bibliographystyle{vancouver}
\bibliography{kimcite-MO_408791041969_003.bib}
\end{document}
}

@Misc{MO_408791041969_003,
  author       = {Karsten Albe and Paul Erhart and Tobias Brink},
  title        = {{T}ersoff-style three-body potential for {S}i{C} (with {S}i{II} parameter set) developed by {E}rhart and {A}lbe (2005) v003},
  doi          = {10.25950/4ecba3f8},
  howpublished = {OpenKIM, \url{https://doi.org/10.25950/4ecba3f8}},
  keywords     = {OpenKIM, Model, MO_408791041969_003},
  publisher    = {OpenKIM},
  year         = 2021,
}

@Misc{MD_077075034781_004,
  author       = {U. Littmark and Jochen P. Biersack and James F. Ziegler and Kai Nordlund and Paul Erhart and Karsten Albe and J. Nord and Jerry Tersoff and Tobias Brink and Aidan P. Thompson and David E. Farrell and Mingjian Wen},
  title        = {{M}odel driver for {T}ersoff-style potentials ported from {LAMMPS} v004},
  doi          = {10.25950/57484673},
  howpublished = {OpenKIM, \url{https://doi.org/10.25950/4ecba3f8}},
  keywords     = {OpenKIM, Model Driver, MD_077075034781_004},
  publisher    = {OpenKIM},
  year         = 2021,
}

@Article{tadmor:elliott:2011,
  author    = {E. B. Tadmor and R. S. Elliott and J. P. Sethna and R. E. Miller and C. A. Becker},
  title     = {The potential of atomistic simulations and the {K}nowledgebase of {I}nteratomic {M}odels},
  journal   = {{JOM}},
  year      = {2011},
  volume    = {63},
  number    = {7},
  pages     = {17},
  doi       = {10.1007/s11837-011-0102-6},
}

@Misc{elliott:tadmor:2011,
  author       = {Ryan S. Elliott and Ellad B. Tadmor},
  title        = {{K}nowledgebase of {I}nteratomic {M}odels ({KIM}) Application Programming Interface ({API})},
  howpublished = {\url{https://openkim.org/kim-api}},
  publisher    = {OpenKIM},
  year         = 2011,
  doi          = {10.25950/ff8f563a},
}

@Article{MO_408791041969_003a,
  author = {Erhart, Paul and Albe, Karsten},
  doi = {10.1103/PhysRevB.71.035211},
  issue = {3},
  journal = {Physical Review B},
  month = {Jan},
  numpages = {14},
  pages = {035211},
  publisher = {American Physical Society},
  title = {Analytical potential for atomistic simulations of silicon, carbon, and silicon carbide},
  volume = {71},
  year = {2005},
}
CITE-CITE-CITE-CITE-CITE-CITE-CITE-CITE-CITE-CITE-CITE-CITE-CITE

WARNING: More than one compute ke/atom (src/compute_ke_atom.cpp:56)
WARNING: More than one compute ke/atom (src/compute_ke_atom.cpp:56)
Neighbor list info ...
  update every 1 steps, delay 100 steps, check yes
  max neighbors/atom: 2000, page size: 100000
  master list distance cutoff = 5.55
  ghost atom cutoff = 5.55
  binsize = 2.775, bins = 54 31 49
  1 neighbor lists, perpetual/occasional/extra = 1 0 0
  (1) pair kim, perpetual
      attributes: full, newton off, ghost, cut 5.55
      pair build: full/bin/ghost
      stencil: full/ghost/bin/3d
      bin: standard
Per MPI rank memory allocation (min/avg/max) = 4.351 | 4.354 | 4.358 Mbytes
Step Temp Press c_ape_C c_ake_C c_ape_Si c_ake_Si 
       0            0   -592.44691  -0.87425466            0   -1.1671734            0 
     100   0.13335807   -617.73532  -0.89004434 1.9137296e-05   -1.1884291 1.5371938e-05 
     200   0.28808733   -639.50046  -0.90396209 3.9779216e-05   -1.2081487 3.471911e-05 
     300   0.90786831   -662.94125  -0.91982903 0.00012027929   -1.2317286 0.00011432827 
     400    3.0071184   -691.26377  -0.94277344 0.0003793254    -1.267599 0.00039714635 
     500    4.5051361   -714.33892  -0.97094489 0.00054735041   -1.3135209 0.00061525092 
     600    5.6012184   -720.61302  -0.99927223 0.00067289917    -1.360262 0.0007723128 
     700    6.6546233   -708.28713   -1.0274152 0.00080516627   -1.4059173 0.00091202693 
     800    7.6923286   -678.01805   -1.0551566  0.000943155   -1.4494271 0.0010422141 
     900    8.7254907   -639.37498   -1.0822096 0.0010942505   -1.4901206 0.0011585627 
    1000    9.7915723   -599.64651   -1.1086515 0.0012673093   -1.5278873 0.0012620226 
Loop time of 0.673061 on 4 procs for 1000 steps with 1220 atoms

Performance: 12.837 ns/day, 1.870 hours/ns, 1485.750 timesteps/s
98.8% CPU use with 4 MPI tasks x 1 OpenMP threads

MPI task timing breakdown:
Section |  min time  |  avg time  |  max time  |%varavg| %total
---------------------------------------------------------------
Pair    | 0.2463     | 0.44814    | 0.60614    |  23.1 | 66.58
Neigh   | 0          | 0          | 0          |   0.0 |  0.00
Comm    | 0.038843   | 0.19687    | 0.39976    |  35.0 | 29.25
Output  | 0.0095877  | 0.0096348  | 0.0097299  |   0.1 |  1.43
Modify  | 0.010447   | 0.012209   | 0.01435    |   1.5 |  1.81
Other   |            | 0.006208   |            |       |  0.92

Nlocal:        305.000 ave         312 max         300 min
Histogram: 2 0 0 0 0 0 1 0 0 1
Nghost:        361.000 ave         388 max         292 min
Histogram: 1 0 0 0 0 0 0 0 0 3
Neighs:         0.00000 ave           0 max           0 min
Histogram: 4 0 0 0 0 0 0 0 0 0
FullNghs:      6874.50 ave        7384 max        6401 min
Histogram: 2 0 0 0 0 0 0 0 1 1

Total # of neighbors = 27498
Ave neighs/atom = 22.539344
Neighbor list builds = 0
Dangerous builds = 0
reset_timestep 0
unfix 1
velocity 3 zero linear
velocity 3 zero angular
velocity 3 create 300 125210
velocity 3 scale 300
fix 1 3 nvt temp 10 300 0.001
thermo_style custom step temp press c_ape_C c_ake_C c_ape_Si c_ake_Si
thermo 100
timestep 0.0001
run 20000
WARNING: More than one compute ke/atom (src/compute_ke_atom.cpp:56)
WARNING: More than one compute ke/atom (src/compute_ke_atom.cpp:56)
Neighbor list info ...
  update every 1 steps, delay 100 steps, check yes
  max neighbors/atom: 2000, page size: 100000
  master list distance cutoff = 5.55
  ghost atom cutoff = 5.55
  binsize = 2.775, bins = 54 31 49
  1 neighbor lists, perpetual/occasional/extra = 1 0 0
  (1) pair kim, perpetual
      attributes: full, newton off, ghost, cut 5.55
      pair build: full/bin/ghost
      stencil: full/ghost/bin/3d
      bin: standard
Per MPI rank memory allocation (min/avg/max) = 4.854 | 4.857 | 4.861 Mbytes
Step Temp Press c_ape_C c_ake_C c_ape_Si c_ake_Si 
       0          300   -570.80905   -1.1086515  0.038845555   -1.5278873  0.038650164 
     100    10.860325     -574.635   -1.1271422  0.001440384    -1.552798  0.001366146 
     200    12.673756   -530.83976   -1.1545487 0.0017178892   -1.5879134 0.0015584618 
     300    14.183569   -485.95225    -1.181545 0.0019712906   -1.6208187 0.0016969417 
     400    15.617067   -434.07832    -1.208386 0.0022220702   -1.6519456 0.0018185642 
     500    17.114187    -379.0252   -1.2343335 0.0024880376    -1.680931 0.0019416575 
     600    18.615328   -331.72381   -1.2599381 0.0027986768   -1.7084587 0.0020225421 
     700    20.580289    -303.7502   -1.2873696   0.00346968   -1.7349655 0.0018725635 
     800    21.817595   -300.29984   -1.3418666 0.0046374781   -1.7548994  0.001056888 
     900    22.616677   -257.37215   -1.3903527 0.0045444067   -1.7755599 0.0013500374 
    1000    24.942664   -269.41844   -1.4387772 0.0053480941   -1.7958319 0.0011634067 
    1100    25.672944   -254.81674   -1.4974275 0.0055354469    -1.813666 0.0011676925 
    1200    27.222148   -219.14536   -1.5551638  0.005658146   -1.8315488 0.0014426694 
    1300    29.132262   -246.84325   -1.6211113 0.0065627045   -1.8485204 0.0010527305 
    1400    29.298601   -240.98785   -1.6952042 0.0065950989   -1.8638848  0.001063655 
    1500    32.826421   -236.17196    -1.763336 0.0070754903   -1.8819249 0.0014953276 
    1600    32.336543   -210.76753   -1.8512351 0.0072760883   -1.8963829 0.0011767019 
    1700    34.208768   -198.05249   -1.9259445 0.0074263282   -1.9120228 0.0015071197 
    1800    37.541955   -182.78291   -1.9997659 0.0078620837   -1.9293043 0.0019325239 
    1900     36.87862   -170.75286   -2.0839429 0.0081434565   -1.9465815 0.0014916465 
    2000    35.530919   -143.66108   -2.1593127 0.0077282356    -1.964268 0.0015509656 
    2100    41.831586   -112.12031   -2.2239865 0.0084820805   -1.9823446 0.0024227031 
    2200    41.842714    -103.6509   -2.2923588  0.008599245   -2.0006872 0.0023121463 
    2300    44.433488   -102.24313   -2.3656755 0.0092673454   -2.0167495 0.0023240223 
    2400     42.52635   -94.819496   -2.4444033 0.0091384985   -2.0332411 0.0019640286 
    2500    46.315535    -73.55386   -2.5167198  0.010292909   -2.0491349 0.0018098485 
    2600    44.913778   -69.877802   -2.5961955  0.010004764   -2.0599859 0.0017324535 
    2700    51.264336    -36.24733   -2.6492699  0.010154225   -2.0749178 0.0032017577 
    2800    50.925531    2.5410067   -2.7058845  0.010443281   -2.0868144 0.0028359218 
    2900     52.34997   -11.656519   -2.7517771  0.010938183   -2.1004096 0.0027189938 
    3000    52.512865    5.2492334    -2.826915  0.012093874   -2.1096978 0.0016419821 
    3100     56.96353    12.335149   -2.8701011  0.011291223   -2.1211797 0.0035498423 
    3200    57.523101    8.6168699   -2.9111991  0.011475505   -2.1348184 0.0035137154 
    3300    55.604532    16.229467   -2.9498546  0.011507129    -2.147991 0.0029955225 
    3400     63.63318    8.6278843   -2.9952221  0.013948282   -2.1568321 0.0026735344 
    3500    63.962069    19.802225   -3.0367806  0.013733564   -2.1658441 0.0029649106 
    3600    65.709615     1.875266   -3.0790792   0.01450331   -2.1724245 0.0026641198 
    3700    63.097306   -5.3197576   -3.1321456  0.014493749   -2.1772087 0.0020094741 
    3800    63.677488    3.9373036   -3.1669173  0.013724483   -2.1830515 0.0029013741 
    3900    63.909533   -7.8033752   -3.2125248  0.013955507    -2.188695 0.0027367752 
    4000    70.550769   -7.7088318    -3.239107  0.014450672     -2.19581 0.0039454005 
    4100    74.489398     -19.7245   -3.2789562  0.016236736   -2.2004468  0.003217923 
    4200    71.944208    -33.41685   -3.3200291  0.016298288   -2.2052377 0.0025115169 
    4300    70.806232   -26.869046   -3.3725166  0.016835055     -2.20688 0.0017028577 
    4400    73.052579   -28.015206   -3.4028111  0.016362367   -2.2096833 0.0027311884 
    4500    74.324982   -38.008904   -3.4221746  0.015799131   -2.2161878 0.0035996268 
    4600     75.07885   -45.786316   -3.4420098  0.015700064   -2.2209577 0.0038870879 
    4700    81.054941   -64.360656   -3.4607947  0.016738006   -2.2250475 0.0044014045 
    4800     73.73026    -77.41932    -3.480106  0.015776094   -2.2287973 0.0034707771 
    4900    84.656562   -62.915371   -3.4887033  0.016099061   -2.2322758 0.0059350619 
    5000    86.654192   -98.580464   -3.5217247  0.019351684   -2.2347619 0.0032950445 
    5100    82.530753   -101.67621   -3.5662158  0.020142504   -2.2347574 0.0014817955 
    5200     79.25082   -89.159257   -3.5816735  0.016783576   -2.2360712 0.0038988013 
    5300    90.211406   -124.59611   -3.6009462  0.019381489   -2.2396329 0.0041702382 
    5400    87.695477   -115.20889   -3.6251754  0.018887163   -2.2456651 0.0040092156 
    5500     82.42435   -106.72614   -3.6369658  0.017382386   -2.2504879 0.0041258352 
    5600    100.04556   -104.06793   -3.6473821  0.018521606   -2.2558542 0.0075016569 
    5700    90.595697   -91.869397   -3.6739037  0.018659659   -2.2640087 0.0049664479 
    5800    94.404105   -102.86551    -3.683348  0.019099977   -2.2663131 0.0055082116 
    5900    98.906939   -94.910108    -3.700951  0.018689109   -2.2753341 0.0070501848 
    6000    97.861961    -91.49538   -3.7075543  0.017045174   -2.2793534 0.0083755173 
    6100    92.061672   -88.226217   -3.7310131  0.017184621   -2.2879078 0.0067664699 
    6200    106.28512   -95.716984   -3.7507973  0.019466628   -2.2967705 0.0081728538 
    6300    100.20359    -84.82336   -3.7614837  0.018994433   -2.3001142 0.0070842452 
    6400    101.43588   -81.686525   -3.7657831  0.018032929   -2.3056388 0.0083279085 
    6500    108.31629   -101.55241   -3.7746618  0.017610914   -2.3111854  0.010484912 
    6600    108.22529    -66.72348   -3.7798586  0.018062448   -2.3153086  0.010024816 
    6700    99.756594   -83.002427   -3.7921775  0.017010466   -2.3204988 0.0088906112 
    6800    93.333406   -74.591082   -3.7980138  0.017648738   -2.3215243  0.006640526 
    6900    116.25202   -87.272998   -3.8100524  0.022606903   -2.3241004 0.0076668883 
    7000    100.64364   -78.622612   -3.8332327  0.021396079   -2.3241296  0.004871905 
    7100    110.04649   -98.985938    -3.846174  0.022810815   -2.3259036 0.0058924667 
    7200    119.29293   -94.279755   -3.8678918  0.026710095   -2.3282728 0.0044688795 
    7300    116.20008   -70.622652   -3.8677794  0.024218538   -2.3288023 0.0060940402 
    7400    112.89337   -84.378306   -3.8766577  0.023225721   -2.3300831 0.0062144563 
    7500    121.32454   -63.861828   -3.8815968  0.024641431   -2.3299944 0.0069871296 
    7600    128.93726   -79.891332   -3.8843283  0.026063281   -2.3335764 0.0075458586 
    7700    125.05701   -69.903662   -3.8923578  0.024531598   -2.3332158 0.0080419996 
    7800    115.39792   -107.49874   -3.9065086  0.023258323    -2.338757 0.0068194189 
    7900    116.26143   -94.731619   -3.9128136  0.021611179   -2.3460681 0.0086328816 
    8000     127.8224   -72.848288   -3.9256084  0.025956104   -2.3504599 0.0073662457 
    8100    141.38419   -46.831322   -3.9201869  0.026944821   -2.3489369 0.0098560447 
    8200    124.35202   -60.207519   -3.9262356  0.021850318   -2.3563377  0.010457618 
    8300      119.437   -66.066695   -3.9397889  0.023274035   -2.3578715 0.0078307136 
    8400    137.21968   -51.353598   -3.9368889  0.025799175   -2.3589813 0.0099063581 
    8500    132.03091   -69.577259   -3.9387476  0.022852445   -2.3619241  0.011439347 
    8600    130.38963   -52.987505   -3.9484686  0.023278393   -2.3628511   0.01061002 
    8700    144.16608   -63.544419   -3.9592667  0.027838796   -2.3640643  0.009697904 
    8800    141.30597   -66.887654   -3.9705753  0.027831485   -2.3666103 0.0089781031 
    8900    128.03238    -66.69188   -3.9741261  0.023873616   -2.3699803 0.0094349202 
    9000    138.50723   -107.46628   -3.9972746  0.024540694   -2.3790487  0.011451462 
    9100    159.62937   -83.490846   -4.0148973  0.027487397   -2.3872127   0.01396784 
    9200    142.29315   -60.874557   -4.0136217  0.024568609   -2.3896749  0.012386611 
    9300    138.46156    -40.52373   -4.0086546  0.023138865   -2.3854709  0.012796466 
    9400     152.7875   -49.480126   -4.0185546  0.026291314   -2.3910548  0.013386533 
    9500    147.06887   -79.923803   -4.0297365  0.026713198   -2.3906526  0.011524913 
    9600    135.31883   -98.659787   -4.0493859  0.027414552   -2.3928336 0.0078600022 
    9700    162.06058   -58.219691   -4.0530083   0.02841586   -2.3999603  0.013687201 
    9800    168.88512   -79.064979    -4.052057  0.026963055   -2.4018604  0.016827544 
    9900    134.29452   -72.513277   -4.0678259  0.024367427   -2.4040804  0.010548515 
   10000    151.10472   -99.420489   -4.0735716  0.025208857   -2.4107537  0.014006406 
   10100    163.32706   -71.056126   -4.0732529  0.022880291   -2.4179826  0.019366068 
   10200    159.84553   -47.465577   -4.0735482   0.02215354   -2.4180456  0.019184572 
   10300    154.49102   -40.301808   -4.0705241  0.021724073   -2.4138285  0.018239379 
   10400    163.54244   -63.081071   -4.0788961  0.022888273   -2.4261994  0.019413082 
   10500    171.56538   -67.221003   -4.0845699  0.026636196   -2.4254598  0.017825025 
   10600    157.45393   -67.737743   -4.0874062  0.024576798   -2.4234319   0.01623168 
   10700    162.37884   -70.710039   -4.0933693  0.020338151   -2.4374813  0.021585222 
   10800    168.75212   -64.264903   -4.1059221   0.02390654    -2.446925  0.019751662 
   10900    170.32108   -33.170153   -4.1119857  0.026307882   -2.4452836   0.01782652 
   11000      167.031   -42.142323   -4.1124722  0.024307297   -2.4502012  0.018926422 
   11100    171.72569   -58.436213   -4.1157414  0.024450186   -2.4538675  0.019981262 
   11200    162.19557   -63.603083   -4.1164148  0.020480995   -2.4606478  0.021400408 
   11300    173.10163   -50.604728   -4.1188454  0.020734684   -2.4684614  0.023926592 
   11400    179.77608   -45.059964   -4.1405275  0.029328704   -2.4702098  0.017306058 
   11500    176.84819   -36.806849   -4.1492672  0.025457806   -2.4753803  0.020307988 
   11600    177.12687   -57.633808   -4.1631443  0.026475829   -2.4810827  0.019393628 
   11700    172.85093   -41.188709   -4.1809956  0.031128785   -2.4822915  0.013804072 
   11800    178.78855   -32.864796   -4.1712418  0.027385549   -2.4847696  0.018935559 
   11900    180.60318   -55.949704   -4.1721462  0.027285617   -2.4891651  0.019493439 
   12000    187.49017    -47.39093   -4.1767432  0.027918353   -2.4917878  0.020631388 
   12100     184.5875   -46.507289    -4.190209  0.028627685   -2.4997517  0.019207249 
   12200    187.81031    -60.73814   -4.1960242  0.027672988   -2.5062016  0.020950199 
   12300     194.0284   -35.458605   -4.1998048  0.026641721   -2.5111009  0.023528478 
   12400     188.3862    -50.23079   -4.1987332  0.021682426   -2.5219832  0.026893875 
   12500    184.62122   -46.678751   -4.2147158  0.025491193   -2.5244882  0.022251133 
   12600    195.09306   -21.618476   -4.2138006   0.02711156   -2.5234959  0.023344372 
   12700     199.3551   -46.282564    -4.213889  0.027560316   -2.5244221  0.023993254 
   12800    186.66046   -50.325765   -4.2227223  0.028005783   -2.5278726  0.020335914 
   12900    191.88327   -67.731776   -4.2321724  0.029258476   -2.5339315  0.020450967 
   13000    202.03429    -47.29016   -4.2353264  0.027125275   -2.5431936  0.025095159 
   13100    204.13566    2.2527126   -4.2392118  0.026231975   -2.5457248  0.026493689 
   13200    200.62722    3.9248893   -4.2498455  0.030957456   -2.5447942  0.021028999 
   13300    208.30523   -41.139057   -4.2537233  0.030574379   -2.5487134  0.023351024 
   13400    211.16112   -64.451576   -4.2553439  0.029480043   -2.5542858  0.025135862 
   13500    199.28736   -53.937476     -4.25715  0.026918924   -2.5575166  0.024596742 
   13600    207.92894   -38.135037   -4.2561406  0.028208178   -2.5600966  0.025545265 
   13700    223.86842   -18.313057   -4.2571224  0.030556264   -2.5627257  0.027323818 
   13800     215.9657   -59.202348   -4.2701602  0.030304017   -2.5713101  0.025559514 
   13900    203.16695   -68.047784   -4.2753045  0.026898337   -2.5827864  0.025602632 
   14000     216.7222   -34.633454   -4.2825734  0.027866031   -2.5909686  0.028111113 
   14100    225.22646   -24.040506   -4.2935571  0.033100053   -2.5936891  0.025207221 
   14200    209.92457   -35.236401   -4.2968678  0.027885712    -2.602183  0.026364503 
   14300     245.0578     14.22678   -4.2955397   0.03071929   -2.6029597  0.032551165 
   14400     226.4913   -27.640635    -4.302193  0.031175801   -2.6055058  0.027390851 
   14500    195.98979   -10.564818   -4.3108206  0.027066669   -2.6089736  0.023615711 
   14600    220.71144   -19.450274   -4.3242257  0.035612814   -2.6094373  0.021628061 
   14700    228.15173   -38.821356   -4.3272017  0.035708325   -2.6103122  0.023426522 
   14800    229.27286   -48.405521   -4.3345073  0.036728138   -2.6158487  0.022724533 
   14900    216.20915   -35.442261   -4.3391636  0.033519473   -2.6183052  0.022509653 
   15000    223.99706   -4.2485068   -4.3437591  0.033938634   -2.6227285  0.024083248 
   15100    242.13088    2.2128117   -4.3449589  0.035326764   -2.6228267  0.027348466 
   15200    221.27676   -2.6083655   -4.3479721  0.036433132   -2.6227166  0.020977875 
   15300    221.84438   -16.818991   -4.3498256  0.034166447   -2.6225672  0.023315698 
   15400    237.95928   -60.155218   -4.3529708  0.034962497   -2.6265265  0.026640801 
   15500    239.58923   -32.470155   -4.3552726  0.034199981   -2.6330873   0.02779296 
   15600    229.68605    -8.826339   -4.3578102  0.033923155   -2.6326371  0.025544041 
   15700     234.6487   -18.880113    -4.359857   0.03074265   -2.6391833  0.029883168 
   15800    239.65548  -0.33962509   -4.3659874  0.031436328   -2.6468908  0.030484299 
   15900    235.01907   -21.365252   -4.3680369  0.032768577   -2.6469334  0.028016718 
   16000    250.39555   -2.2301197   -4.3676739  0.032627161   -2.6500852  0.032061386 
   16100    241.70769   -12.213124   -4.3656145  0.030594359   -2.6519244  0.031820661 
   16200    241.45305   -30.617847   -4.3639992  0.031994416   -2.6497669  0.030401051 
   16300    257.05961   -24.069218   -4.3710476  0.034898688   -2.6538303  0.031556751 
   16400    245.71365   -44.399988   -4.3679867  0.031764426   -2.6547335  0.031706423 
   16500    245.98304   -21.239042   -4.3668194  0.029346916   -2.6576414  0.034114411 
   16600    248.15842   -12.959911   -4.3711975  0.030026061   -2.6625065   0.03401003 
   16700    258.18396    -6.088474   -4.3761928  0.032063023   -2.6669023  0.034586689 
   16800    255.47763   -28.732813   -4.3750132  0.031934782   -2.6673163  0.034022998 
   16900    256.87317    1.4725042   -4.3866909  0.034359031   -2.6768716  0.032031618 
   17000    262.22252    9.1676921   -4.3848051  0.032857032   -2.6795177  0.034844659 
   17100    262.22297   -8.5727556   -4.3868792   0.03567071   -2.6762785  0.032121861 
   17200    260.71761   -33.250667   -4.3915099  0.033940099   -2.6877504  0.033414071 
   17300    272.18445   -10.436887   -4.3958891  0.037496928   -2.6861339  0.032886185 
   17400    269.78646  -0.90525007   -4.3991122   0.03581296   -2.6903412  0.033906399 
   17500    263.89161    2.5063372   -4.3951402  0.033113944   -2.6921698  0.035020222 
   17600    266.42032  -0.92685253   -4.4001172  0.035410267   -2.6955544  0.033440626 
   17700    275.77599   -26.057724   -4.4088296   0.03578581   -2.7013579  0.035454868 
   17800    267.94964  -0.90267746   -4.4277073  0.040363469   -2.7103297  0.029035869 
   17900    273.43533   -5.9530972   -4.4220431  0.036789949   -2.7125091  0.033888259 
   18000    272.91418   -21.325589   -4.4319179  0.035167306   -2.7227484  0.035326112 
   18100    284.44812    1.3209776   -4.4310063  0.033971967   -2.7246099  0.039414152 
   18200    272.04907   -3.0843176    -4.428113  0.036027548    -2.721169  0.034273761 
   18300    274.97541   -10.143597   -4.4408241  0.037423194   -2.7277189   0.03366684 
   18400    283.67004   -31.708997   -4.4445384  0.036223791   -2.7334313  0.037037224 
   18500    278.40244   -48.536202   -4.4614294  0.044468384   -2.7340335  0.027719867 
   18600      272.637   -6.8353215    -4.469223  0.041004154   -2.7381098  0.029607107 
   18700    281.75209   -15.303113   -4.4766182  0.041974429    -2.745469  0.030984659 
   18800    280.32771   -36.541522   -4.4784419  0.043869864   -2.7470921  0.028788372 
   18900    279.89528   -7.5693425   -4.4726226  0.038708892   -2.7508773  0.033672963 
   19000    283.50636  -0.54735282   -4.4799245  0.040901396   -2.7548636  0.032468911 
   19100    284.02744    21.952752   -4.4883718  0.045678843   -2.7455646  0.027978005 
   19200    287.33569   -10.176507   -4.4947175  0.042452714   -2.7569517   0.03194083 
   19300    289.33837   -27.715229   -4.4990667  0.043005587   -2.7613355  0.031914758 
   19400    290.09249   -23.580282   -4.4975491  0.045977227   -2.7575664  0.029230632 
   19500    301.96127   -2.4501241   -4.5037342  0.047534185   -2.7621399  0.030740254 
   19600    299.25872   -19.657026   -4.5077027   0.04464043   -2.7713824  0.032853832 
   19700    305.00162    -22.16971   -4.5039072  0.042216547   -2.7750646  0.036659036 
   19800    291.75775     48.88809   -4.5078602  0.043022983   -2.7729957  0.032512789 
   19900    303.82923   -23.326094   -4.5131082  0.039187337   -2.7855951  0.039292575 
   20000     314.3875  0.073693309   -4.5187211  0.044336824   -2.7839706  0.036992503 
Loop time of 28.2719 on 4 procs for 20000 steps with 1220 atoms

Performance: 6.112 ns/day, 3.927 hours/ns, 707.416 timesteps/s
99.3% CPU use with 4 MPI tasks x 1 OpenMP threads

MPI task timing breakdown:
Section |  min time  |  avg time  |  max time  |%varavg| %total
---------------------------------------------------------------
Pair    | 5.8454     | 15.337     | 26.892     | 217.8 | 54.25
Neigh   | 0.016446   | 0.022452   | 0.027264   |   2.8 |  0.08
Comm    | 0.65115    | 12.204     | 21.731     | 244.5 | 43.17
Output  | 0.25434    | 0.25512    | 0.25699    |   0.2 |  0.90
Modify  | 0.19463    | 0.27572    | 0.3652     |  12.5 |  0.98
Other   |            | 0.1776     |            |       |  0.63

Nlocal:        305.000 ave         466 max         140 min
Histogram: 1 0 0 0 0 2 0 0 0 1
Nghost:        349.250 ave         430 max         211 min
Histogram: 1 0 0 0 0 0 1 0 1 1
Neighs:         0.00000 ave           0 max           0 min
Histogram: 4 0 0 0 0 0 0 0 0 0
FullNghs:      6942.00 ave        9940 max        3098 min
Histogram: 1 0 0 0 1 0 0 1 0 1

Total # of neighbors = 27768
Ave neighs/atom = 22.760656
Neighbor list builds = 16
Dangerous builds = 0
reset_timestep 0
unfix 1
velocity 3 zero linear
velocity 3 zero angular
velocity 3 create $t 12025
velocity 3 create 900 12025
velocity 3 scale $t
velocity 3 scale 900
fix 1 3 nvt temp $t $t 0.001
fix 1 3 nvt temp 900 $t 0.001
fix 1 3 nvt temp 900 900 0.001
thermo_style custom step temp press c_ape_C c_ake_C c_ape_Si c_ake_Si
thermo 100
timestep ${dt}
timestep 0.0001
run 50000
WARNING: More than one compute ke/atom (src/compute_ke_atom.cpp:56)
WARNING: More than one compute ke/atom (src/compute_ke_atom.cpp:56)
Neighbor list info ...
  update every 1 steps, delay 100 steps, check yes
  max neighbors/atom: 2000, page size: 100000
  master list distance cutoff = 5.55
  ghost atom cutoff = 5.55
  binsize = 2.775, bins = 54 31 49
  1 neighbor lists, perpetual/occasional/extra = 1 0 0
  (1) pair kim, perpetual
      attributes: full, newton off, ghost, cut 5.55
      pair build: full/bin/ghost
      stencil: full/ghost/bin/3d
      bin: standard
Per MPI rank memory allocation (min/avg/max) = 4.864 | 4.865 | 4.867 Mbytes
Step Temp Press c_ape_C c_ake_C c_ape_Si c_ake_Si 
       0          900    58.264887   -4.5187211   0.11925098   -2.7839706   0.11332374 
     100    912.92797    60.647649   -4.4877444   0.10469954   -2.7754803   0.13069131 
     200     899.3702    68.241623   -4.4944881   0.10680359   -2.7729059   0.12520954 
     300    880.36188    32.757746   -4.4967063   0.10508153   -2.7678155   0.12204524 
     400     919.8894   -13.914873   -4.5205194   0.11331073   -2.8003203    0.1241271 
     500    947.16053    3.9862059   -4.5246128   0.10520966   -2.8242092   0.13889759 
     600    899.70415   -48.336497   -4.5458841   0.10357418   -2.8640095   0.12841965 
     700     923.9243    13.420961   -4.5742238  0.099035103   -2.9174559   0.13896766 
     800    937.55796   -16.105274   -4.6036881  0.096341436   -2.9548365   0.14503932 
     900    900.47375   -22.805703   -4.6179653  0.089418468   -2.9819652   0.14231431 
    1000    889.65496   -42.366381   -4.6422379  0.085911003   -3.0318589   0.14295912 
    1100    894.73887   -20.453081   -4.6626827  0.093219164   -3.0570119   0.13717874 
    1200    900.40824   -14.298895   -4.6712636  0.085917592   -3.0995544   0.14568561 
    1300      905.054    15.453302   -4.6747126  0.083057158   -3.1305326   0.14963445 
    1400    903.53348   -26.241724   -4.6782699  0.080427897   -3.1423328   0.15179247 
    1500    883.77458   -20.715125   -4.6980812  0.085092266   -3.1649649   0.14225699 
    1600     891.1725   -49.138153   -4.7101828  0.080263838    -3.203217   0.14880979 
    1700    924.67193   -69.150301   -4.7102535  0.084643731   -3.2155206    0.1530848 
    1800     922.4846    6.0207588   -4.7217258  0.090285049   -3.2229235   0.14706957 
    1900    874.58622    -12.05705   -4.7256038  0.082284936   -3.2452077   0.14263862 
    2000     923.6141    12.682225   -4.7304183  0.090428803   -3.2499977    0.1472175 
    2100    891.09525   -94.077331   -4.7335338  0.080154751   -3.2697003   0.14889573 
    2200    911.69789   -27.295344   -4.7382467  0.079964968   -3.2794345   0.15431538 
    2300    892.94058   -26.518891   -4.7485346  0.078206272   -3.2971914   0.15125033 
    2400      881.615   -57.927437   -4.7482698  0.076063231   -3.3054263   0.15044593 
    2500    931.84208    -7.349188    -4.752195  0.083788167   -3.3156217     0.155735 
    2600    901.11091   -12.426492   -4.7582775  0.083333962   -3.3278902   0.14836447 
    2700    885.93167       29.558   -4.7590812  0.081988851   -3.3391849   0.14580851 
    2800    897.57136   -31.007516   -4.7639671  0.075896738   -3.3636966   0.15466224 
    2900    896.28298   -53.625507   -4.7813488  0.084582942   -3.3706425    0.1459288 
    3000    952.94289   -31.122393   -4.7845011  0.091802503   -3.3776859    0.1533418 
    3100    913.71243   -35.657129   -4.7792612  0.080607135   -3.3995435   0.15420591 
    3200    885.23201   -18.977351   -4.7836429  0.075038982   -3.4236835   0.15235637 
    3300    874.38868   -27.793517   -4.7866311  0.077758446   -3.4379934   0.14696889 
    3400    914.06121   -25.540778   -4.7857386  0.080581113   -3.4423093   0.15431974 
    3500    886.01205  -0.11077104   -4.7907168  0.078785031   -3.4556101   0.14892941 
    3600    886.88088   -30.871808   -4.8011805  0.083627457   -3.4697795   0.14446399 
    3700    901.19734    2.6879096   -4.7948673   0.08332298   -3.4718603   0.14839706 
    3800    874.89129   -16.349215   -4.7898525  0.078421509   -3.4740055   0.14645495 
    3900    885.26204    23.017415   -4.7868522  0.083350786   -3.4626187   0.14432032 
    4000    902.49421   -16.900376   -4.7933048  0.083054841   -3.4829281   0.14898614 
    4100    860.19141    10.170906   -4.8009017  0.087298883   -3.4900094   0.13412808 
    4200    901.83748    14.298206   -4.8046002  0.098086245   -3.4862122   0.13427272 
    4300    913.62114   -65.124717   -4.7972811   0.09000221    -3.502766   0.14509071 
    4400    884.62827   -102.93985   -4.7987597  0.087194843     -3.51113    0.1404392 
    4500    880.79003   -31.671643   -4.8065527  0.093491884   -3.5190631   0.13336983 
    4600    919.36683    64.621563   -4.8118912    0.0917819   -3.5326095   0.14482865 
    4700    919.05369    55.019443   -4.8166801  0.086765823   -3.5558386   0.14960333 
    4800    856.20641    27.774289   -4.8182973  0.079005305   -3.5677543   0.14114137 
    4900    893.99011   -42.257073   -4.8240301  0.090386432   -3.5520906   0.13972981 
    5000    893.25342   -12.205925   -4.8269823  0.093242843   -3.5576105   0.13677831 
    5100    939.78833   -54.183965   -4.8318044  0.092921661   -3.5784568   0.14891561 
    5200    912.86078   0.52762608   -4.8339565  0.091569475   -3.5709516   0.14338076 
    5300    944.41736    12.785045   -4.8400047  0.097206355   -3.5811157   0.14594557 
    5400    903.55245    -15.00074   -4.8438294  0.091972694   -3.5937986   0.14062491 
    5500    861.41302   -9.6787696   -4.8472605  0.093210754   -3.5846474   0.12871738 
    5600    892.03844   -31.570993   -4.8529295   0.10232359   -3.5802309   0.12768171 
    5700    888.32054   -54.943299   -4.8509619    0.1005071   -3.5892172   0.12849473 
    5800     910.6622   -67.851057   -4.8451398   0.09060943   -3.6033524   0.14375108 
    5900    879.73496   -2.0813864   -4.8552344  0.090873597   -3.6111129   0.13563552 
    6000    926.97155   -7.4908737   -4.8701481   0.10401283   -3.6179424   0.13492494 
    6100    909.96077    -4.654749   -4.8609401  0.093101498   -3.6232884   0.14116114 
    6200    899.03712   -29.704332   -4.8640689  0.093430817   -3.6487215   0.13806628 
    6300    889.27084   -24.810392   -4.8744085   0.09293851   -3.6595611   0.13606068 
    6400    928.96922    17.473079   -4.8652488  0.094380986   -3.6526311   0.14475377 
    6500    870.51669    -8.629282   -4.8616988  0.083868821   -3.6658692   0.14007159 
    6600    900.65641   -15.053856   -4.8711642   0.09247983   -3.6714639   0.13939812 
    6700    916.68568   -39.097781   -4.8671104  0.096987073   -3.6715017   0.13910999 
    6800    885.81002    2.2603418   -4.8797267   0.09572803   -3.6774168   0.13248161 
    6900     899.4378   -40.448256   -4.8865507  0.096417146   -3.6839131   0.13527812 
    7000    874.80646   -27.628859   -4.8858212  0.091138189   -3.6874786   0.13412693 
    7100     917.1622   -52.007229    -4.888597  0.092282589   -3.7069455   0.14378382 
    7200    901.35125   -18.824831   -4.8875965   0.10017676      -3.6992   0.13212606 
    7300    891.97071   -24.792592   -4.8926457   0.10102404   -3.7026553   0.12892213 
    7400    908.93826   -33.043904   -4.8917468  0.092782867   -3.7192376   0.14120963 
    7500    878.74968   -26.754369   -4.8893481  0.094520453   -3.7153135    0.1318559 
    7600    901.40967   -63.077965   -4.8916366  0.097907623   -3.7144432   0.13433686 
    7700    890.01589   -42.668838   -4.9004691  0.090778072   -3.7372329   0.13834078 
    7800    904.21831    7.5019709   -4.9027073   0.09525976   -3.7366515    0.1376131 
    7900    918.87454    44.046686   -4.9083076  0.098976182   -3.7360039   0.13774132 
    8000    875.45313    11.813837   -4.9091327  0.090990791   -3.7400667   0.13443391 
    8100     872.2123   -26.981509   -4.9189072  0.096078456   -3.7511207   0.12868674 
    8200    906.32523   -59.099649   -4.9138296   0.10105624   -3.7448483   0.13253906 
    8300    890.87041   -11.811595   -4.9073293  0.096950488   -3.7480715   0.13258465 
    8400    898.51156   -49.165496   -4.9077784   0.10281463   -3.7477017    0.1288516 
    8500    917.28142    20.612381   -4.9011316   0.09958634   -3.7429572   0.13674597 
    8600    888.89652   0.38983492   -4.9080866  0.091004733   -3.7616173   0.13783695 
    8700    913.28335    46.807081   -4.9091492  0.092557255   -3.7665135   0.14253223 
    8800    887.89941    19.097827   -4.9228478   0.09874528   -3.7779709   0.13009269 
    8900    909.84079   -26.028863   -4.9259076  0.098253046   -3.7787302   0.13614528 
    9000    862.81403     -4.51055   -4.9340193  0.098504069   -3.7805307   0.12395087 
    9100    917.10481    -21.75603   -4.9273812   0.10095036   -3.7858663   0.13538107 
    9200    852.47573   -33.640086   -4.9360168  0.094076244     -3.80097   0.12560847 
    9300    937.40985    -10.10779   -4.9314379   0.10474381   -3.7974595   0.13687035 
    9400    909.12895   -56.048843   -4.9377619   0.10627369   -3.8031763   0.12820245 
    9500    872.62065   -79.956055    -4.935268  0.099291314   -3.8102675    0.1256813 
    9600    886.39181   -45.047531   -4.9362494   0.10153814   -3.8094878   0.12700678 
    9700     922.1236    56.228667   -4.9364035   0.10078956   -3.8011383   0.13681216 
    9800    895.57444     29.54095   -4.9473421  0.099407131   -3.8155263   0.13140274 
    9900    922.30058     14.03709   -4.9516611   0.10772742   -3.8252728   0.13014309 
   10000    909.98067   -35.758273   -4.9430614   0.10269239    -3.823299   0.13188469 
   10100    879.03734     36.31211   -4.9493808   0.10207092   -3.8303256   0.12462211 
   10200    937.61417   -15.908679   -4.9414326   0.10584065   -3.8271281   0.13586082 
   10300    893.33159   -62.841429   -4.9444267   0.10276941   -3.8293195   0.12757892 
   10400    901.68551   -76.813986   -4.9401921  0.098071466   -3.8267781    0.1342484 
   10500    935.89952   -71.079132   -4.9448493   0.10629314    -3.826771   0.13498716 
   10600    850.10768   -48.437717    -4.949377  0.097257395   -3.8368121   0.12192811 
   10700    884.01078   -7.3959429   -4.9556834   0.10138928   -3.8446135   0.12654571 
   10800    872.98478    57.365477   -4.9502779  0.094873975   -3.8398105   0.13004868 
   10900    890.95114    21.936301   -4.9484087   0.10237052   -3.8376049   0.12735997 
   11000     929.1389     13.40972    -4.944673   0.10970182   -3.8301007   0.12997028 
   11100    859.77122    -67.26839   -4.9464296  0.095862974   -3.8465251   0.12573346 
   11200    896.39623   -100.40973   -4.9508991   0.10492694   -3.8489202   0.12626985 
   11300    928.02558   -79.862425   -4.9582612   0.11392804   -3.8390165   0.12559745 
   11400    923.98607   -36.222377   -4.9540727   0.10083837   -3.8476744   0.13723826 
   11500    886.85976   -48.304422   -4.9756225   0.10984765   -3.8619217   0.11908425 
   11600    906.40981    14.948846   -4.9756011   0.11101155   -3.8590218   0.12292639 
   11700    938.57996   -7.8005976   -4.9735929   0.11385119    -3.857295   0.12835414 
   11800    926.66482   -30.341391   -4.9691692   0.10906555   -3.8663895   0.12995726 
   11900    877.54943    10.016554   -4.9768303   0.10512147    -3.872115   0.12129182 
   12000    922.91085    64.779882   -4.9754291   0.11369123   -3.8643782   0.12452675 
   12100    916.00914    25.498105   -4.9732209   0.10603863   -3.8733059   0.13017848 
   12200    902.88206   -19.000691   -4.9742677   0.10321573   -3.8757791   0.12957417 
   12300    921.50461    -25.65228   -4.9794074   0.10950456   -3.8760619   0.12822099 
   12400    905.93523   -64.036114    -4.985721   0.10920109   -3.8762717   0.12455783 
   12500     897.7179    -29.98667   -4.9844783   0.10572826   -3.8823426   0.12583026 
   12600    915.07246    21.379075   -4.9864425    0.1011025   -3.8877077   0.13471733 
   12700    924.66524    27.498325   -4.9865282     0.101958   -3.8922173   0.13632736 
   12800    870.87255    34.848283   -4.9902967  0.098495961   -3.8988521   0.12600673 
   12900    911.36586   -13.156674   -4.9822769   0.10192475     -3.89748    0.1329796 
   13000    906.65181   -35.835781   -4.9870045   0.10363275   -3.8952087   0.13012866 
   13100    869.12673    -77.03314   -4.9946776  0.099005786   -3.8982001   0.12506966 
   13200    904.25815   -74.696377   -4.9887598   0.10603887   -3.9014035   0.12719182 
   13300    886.98681   -58.709531    -4.998987   0.10583426   -3.9043674   0.12300046 
   13400    886.87303   -26.636504   -5.0037007   0.10260338   -3.9026026   0.12609821 
   13500    936.08448   -10.372238   -5.0033518    0.1085227   -3.9104874   0.13287654 
   13600    878.06722    3.1281562   -5.0026273  0.099633463   -3.9137941   0.12673439 
   13700    915.43297   -10.896774   -5.0038593   0.10416269   -3.9176925   0.13184747 
   13800     913.1146   -2.5385653    -5.001085   0.10120075   -3.9183437   0.13412468 
   13900    867.32952   -43.246436   -5.0031271  0.096711728   -3.9234324   0.12683297 
   14000    900.20266    -18.50437   -5.0049526   0.10359476   -3.9241627   0.12852642 
   14100    914.55997    6.1002616   -5.0063844    0.1082693   -3.9166772   0.12765147 
   14200    898.03284   -7.0902919   -4.9996691  0.099323744   -3.9193067   0.13210822 
   14300    915.85828   -14.607514   -5.0073582   0.10736266   -3.9189444   0.12885882 
   14400    888.84973    20.196069   -5.0069138  0.099639354   -3.9177496   0.12946898 
   14500    882.21433   0.60973465   -5.0071597  0.098747244   -3.9215367   0.12864597 
   14600    911.34953    19.534932   -5.0044766   0.10494555   -3.9184476    0.1300521 
   14700    947.81571   -36.195175   -5.0132692    0.1082322   -3.9385746   0.13613906 
   14800    877.91602   -24.894311   -5.0140208   0.10324953    -3.927444   0.12319654 
   14900    900.72606   -5.4078419   -5.0156668   0.10517515   -3.9303611   0.12713003 
   15000    890.44267  -0.87599881   -5.0114307  0.098395929    -3.937539   0.13107713 
   15100    879.95829   -13.262303   -5.0159134  0.099056456   -3.9378784   0.12777338 
   15200    921.80277   -37.350098   -5.0157017   0.10478862   -3.9362471   0.13286057 
   15300    911.73052   -65.618827   -5.0145165   0.10387314   -3.9403571   0.13118673 
   15400    894.32178   -36.088917   -5.0118214   0.10453935   -3.9361631   0.12611772 
   15500     886.3903    -36.06003   -5.0082296   0.10120514    -3.935445   0.12732865 
   15600    902.92448   -59.011993   -5.0110681   0.10682508   -3.9394079   0.12609204 
   15700    941.95825   -72.703089    -5.021458   0.11291683   -3.9413203   0.13011692 
   15800    922.18402   -29.234446    -5.022078   0.10757278   -3.9466245   0.13026311 
   15900    882.59758   -24.450349   -5.0155913  0.096582748   -3.9529104   0.13083805 
   16000    916.92173   -17.862917   -5.0139331   0.10544637   -3.9548623   0.13098357 
   16100    898.85361   -37.007857   -5.0230411   0.10007123   -3.9633399   0.13159344 
   16200    860.45242    2.5766942   -5.0254925  0.097315491    -3.966309   0.12450092 
   16300    936.31702    23.313052   -5.0256971   0.11006311   -3.9616274   0.13144491 
   16400    895.39339    36.833975   -5.0278546   0.10314925   -3.9669957   0.12773532 
   16500    818.61558    33.639307   -5.0223123  0.090712116    -3.967136   0.12025878 
   16600    902.62817    44.963815   -5.0371789   0.10559765   -3.9708888   0.12720456 
   16700    917.63269    5.7302886   -5.0319867   0.10532756   -3.9766163   0.13127922 
   16800    879.53259    12.664349   -5.0263078   0.10154989   -3.9631234   0.12525219 
   16900    875.47354    32.193286   -5.0310319     0.105165   -3.9652663   0.12072213 
   17000    919.02434    4.5899085   -5.0283454   0.10757223   -3.9691243   0.12946064 
   17100    910.87986   -49.126704   -5.0332149   0.11010885   -3.9706014   0.12493599 
   17200    854.12465   -77.729436   -5.0332589   0.10256187   -3.9727293   0.11781563 
   17300    902.22428   -73.378186   -5.0318142   0.10579277   -3.9759588    0.1269131 
   17400    922.58375   -15.167732   -5.0344364   0.11136389   -3.9746738   0.12669589 
   17500    892.17309    7.2695181   -5.0349391  0.098990019   -3.9802093   0.13094197 
   17600    903.85045    25.934381   -5.0348007   0.10005922   -3.9886116   0.13287497 
   17700    904.05773    4.7581021   -5.0292938  0.098643935   -3.9864278   0.13429728 
   17800    914.88931    8.2354638   -5.0363356   0.11314906   -3.9901945   0.12301282 
   17900    899.50873     5.949984   -5.0305869   0.10231016   -4.0028621   0.12959323 
   18000    843.51894     -20.0862   -5.0287978  0.096415504   -3.9986724   0.12106837 
   18100    866.09587   -40.276561   -5.0276646    0.1011102   -3.9926619   0.12226286 
   18200    904.72141   -42.521785   -5.0273872   0.10566694   -3.9908865   0.12766949 
   18300    934.87928   -20.880465   -5.0331782   0.10930632   -3.9965349    0.1318119 
   18400    896.00675   -20.660872   -5.0306421  0.098866213   -4.0050628   0.13203608 
   18500    880.48192    13.816493   -5.0242384  0.095974606   -4.0051209    0.1308889 
   18600    900.91213    25.024566   -5.0319218   0.10584791   -4.0098956   0.12652626 
   18700    925.94474    24.241622   -5.0322162   0.11195805   -4.0065673   0.12697506 
   18800    935.04347    -17.83457    -5.033888   0.10749451   -4.0064546   0.13360699 
   18900    875.76823     -23.6787   -5.0355288  0.098030178   -4.0170736   0.12770168 
   19000     891.9024   -32.119736   -5.0387207  0.099221997   -4.0212704   0.13064868 
   19100    881.45681    3.7249433   -5.0323157   0.10056181   -4.0095618   0.12669743 
   19200    899.56018    12.300591   -5.0338905   0.10330462    -4.019461   0.12864392 
   19300    898.36533   -32.724813   -5.0398628  0.098818266   -4.0286785   0.13268189 
   19400    853.36171    4.1859094   -5.0456534  0.098159985   -4.0256669   0.12188162 
   19500    903.60706    7.9186334    -5.047018   0.10381629   -4.0202624   0.12917724 
   19600    893.39655    20.002727   -5.0378624   0.10107049    -4.017944   0.12923955 
   19700    901.62278   -13.710203   -5.0453051    0.1059218   -4.0226328   0.12663536 
   19800    912.72743    27.602626   -5.0447863   0.10279663   -4.0280173   0.13248188 
   19900    878.86379    39.881916   -5.0402407   0.10087657   -4.0263104   0.12573382 
   20000    918.31416    20.981565   -5.0405302   0.10620875   -4.0213905   0.13059965 
   20100     902.6851   -17.965885   -5.0376397   0.10160693   -4.0181759   0.13108102 
   20200    880.55999   -42.137099   -5.0396259  0.099150787   -4.0269376   0.12783501 
   20300      941.925   -27.757297   -5.0389904   0.11390327   -4.0233688   0.12915385 
   20400    888.79821   -53.934372   -5.0340991   0.10486043   -4.0245926   0.12440323 
   20500    867.88731   -68.350044   -5.0380569   0.10070579   -4.0293315   0.12310951 
   20600    910.28681   -69.622497   -5.0375387   0.10234538   -4.0254848   0.13229831 
   20700    880.37423   -45.016562   -5.0404004   0.10220735   -4.0318348   0.12482984 
   20800    885.20527   -4.7810323   -5.0364643   0.10114996   -4.0313777   0.12708089 
   20900    874.82494   -3.2575204    -5.041008   0.10358203   -4.0268895   0.12208919 
   21000     931.9234    12.088643   -5.0435652   0.10764763   -4.0337279   0.13266587 
   21100    924.51309    39.867207   -5.0510646   0.10748165   -4.0373651   0.13094322 
   21200    909.07218    53.088817   -5.0514398   0.10424705   -4.0364217    0.1301493 
   21300    901.66755    31.204473   -5.0537884   0.10351234   -4.0427504   0.12897848 
   21400    884.27339    5.8886048   -5.0519982  0.099640199   -4.0447016   0.12830512 
   21500    891.88015    50.281877   -5.0528402   0.10461838   -4.0443959   0.12542072 
   21600    866.88117    26.072061   -5.0538148   0.10409774    -4.043106   0.11957127 
   21700    892.76252     14.92514   -5.0575082    0.1055949    -4.044864   0.12469995 
   21800    897.57812   0.20882659   -5.0664403   0.11232851   -4.0540592    0.1194074 
   21900    884.56556    -23.69451   -5.0653321   0.10691475   -4.0538844   0.12133948 
   22000    909.19256    -42.60013   -5.0619267   0.10655532   -4.0522785   0.12794608 
   22100    930.95299   -47.815496   -5.0593611   0.10991105   -4.0490541   0.13022883 
   22200    888.74031   -42.537832   -5.0737369   0.11103593   -4.0548537   0.11841223 
   22300    934.48066   -47.814278   -5.0738663   0.11508346   -4.0575171   0.12611981 
   22400    888.85345    -7.438425   -5.0815412   0.11138008   -4.0540454   0.11810793 
   22500    868.26561   -6.7019495   -5.0795966    0.1061563    -4.052331   0.11793097 
   22600    975.04308   -17.471544   -5.0720594   0.11793015   -4.0491641   0.13367357 
   22700    892.45642   -60.639202   -5.0792633   0.11567203   -4.0534739    0.1148701 
   22800    900.37455   -16.863728   -5.0837405   0.11697356   -4.0579417   0.11562288 
   22900    904.30382   -1.3512868    -5.081428    0.1104092   -4.0574439   0.12297408 
   23000    888.10435    7.9741724    -5.087837   0.11550037   -4.0613506   0.11393018 
   23100    910.90308    20.997633    -5.092091   0.11502828   -4.0656349   0.12018115 
   23200    863.61332    23.108986   -5.0963634   0.10891833   -4.0674664   0.11407569 
   23300    947.98477   -10.222634   -5.0923919    0.1157394   -4.0691266   0.12891699 
   23400    886.61862   -30.763815   -5.1017242   0.11623031    -4.062216   0.11284619 
   23500    879.66584   -57.203548   -5.1127139   0.12039145   -4.0651012   0.10705229 
   23600    906.78313   -22.448001   -5.1087294   0.11766379   -4.0719697   0.11658361 
   23700    912.59456    19.926752   -5.1130752   0.11370365   -4.0830922   0.12189293 
   23800    923.27718   -20.898075   -5.1152174   0.11524918   -4.0870196   0.12311216 
   23900    872.78657   -14.026032   -5.1163721   0.10910925    -4.087416   0.11622223 
   24000    923.93993   -2.3633188   -5.1078547   0.11374735   -4.0817669   0.12473397 
   24100    900.54737    15.242335   -5.1090656   0.11024478   -4.0847013   0.12217853 
   24200    900.46644    -6.794114   -5.1149016   0.11028688   -4.0905055   0.12211721 
   24300    907.51482   -24.608315   -5.1299609    0.1200869   -4.0885635   0.11442462 
   24400    887.15417    29.838236   -5.1303396   0.11185945   -4.0932294   0.11721216 
   24500    872.25568    21.248936   -5.1273035   0.10731257   -4.0969734   0.11782604 
   24600    911.77745    36.853789   -5.1315288   0.11685999   -4.0935985   0.11863074 
   24700    901.13275    48.011907   -5.1243245   0.10849356   -4.0959415   0.12402202 
   24800    895.01298    124.20489   -5.1267926   0.10512536   -4.1006053   0.12572628 
   24900    927.17662    68.836646   -5.1328293   0.10988673    -4.102918   0.12929264 
   25000    891.20359    59.661924   -5.1293321   0.10837226   -4.0956433   0.12161599 
   25100    885.77382      9.98596   -5.1365169   0.10834132   -4.0955682     0.120266 
   25200    900.53803    52.205706   -5.1327716   0.11263238   -4.0928847   0.11986557 
   25300    912.06658   -11.112482   -5.1385241   0.11213338    -4.095177   0.12327836 
   25400    867.83553   -63.084366   -5.1345665   0.10437611   -4.0991918   0.11954443 
   25500    884.89535   -24.675658   -5.1440088   0.11620758   -4.1035111   0.11243024 
   25600    895.13698   -22.055795   -5.1354025   0.10891581   -4.1061936   0.12208962 
   25700    955.30511  -0.47858489   -5.1360386   0.11922823   -4.1088833   0.12740111 
   25800    897.12026   -26.903245   -5.1384801   0.11506317   -4.1052599   0.11664459 
   25900    871.97529   -34.441324   -5.1337933   0.10827781   -4.1078433   0.11682067 
   26000    900.94216    5.3878231   -5.1359841   0.11427753   -4.1140248    0.1183762 
   26100    902.74715     5.342198   -5.1402741   0.10971005   -4.1139544   0.12325506 
   26200    909.74774     34.28435   -5.1463689   0.11338265    -4.108437   0.12148008 
   26300    907.38546    37.121415   -5.1467002   0.11432453   -4.1065311   0.11996823 
   26400    914.47697    31.370453   -5.1474097   0.11454732   -4.1144404   0.12155487 
   26500    857.23714   -2.9393016   -5.1505915   0.11125934   -4.1135086   0.11018974 
   26600    866.60389   -73.583907   -5.1454901   0.10790614   -4.1171014   0.11581526 
   26700    905.66889   -49.571461   -5.1516322   0.11343572   -4.1216248   0.12039211 
   26800    875.76658    10.122402   -5.1624434   0.11274246   -4.1260275   0.11346358 
   26900     915.3058   0.52439349   -5.1558571   0.11399881   -4.1268268   0.12229633 
   27000    887.54302   -15.034333   -5.1565374   0.10632104     -4.13774   0.12267074 
   27100    852.89048   -12.607656   -5.1559672   0.10570678   -4.1359816   0.11445851 
   27200    940.39021   -15.542757     -5.15032   0.11773349   -4.1263511   0.12505713 
   27300    885.67857   -12.263976   -5.1593957     0.115244   -4.1276909   0.11356178 
   27400    915.37284    30.186383   -5.1657672   0.11689264   -4.1383394   0.11951289 
   27500    901.02548    50.530157   -5.1699403   0.12028069   -4.1333676   0.11258786 
   27600    885.65146    74.537724   -5.1734797   0.12285841   -4.1290916    0.1061861 
   27700    930.73854     25.46701   -5.1710825    0.1216126   -4.1350127   0.11885025 
   27800    904.29568    33.378513   -5.1752793    0.1195375   -4.1378973   0.11413817 
   27900    913.21614    82.146792   -5.1651713   0.11647158   -4.1363978   0.11937226 
   28000    891.69562     66.44637   -5.1666053   0.11207326   -4.1385027   0.11815942 
   28100     928.7258    16.059552   -5.1762921   0.12118452   -4.1421717   0.11875301 
   28200    887.90457  -0.32410396   -5.1809203   0.11419423   -4.1460863   0.11514341 
   28300    925.80069    5.6360345   -5.1765801   0.11765282   -4.1409123   0.12142739 
   28400    898.69606    20.192432   -5.1742197   0.11439759   -4.1382096   0.11768918 
   28500    901.82514  -0.66434452   -5.1700238    0.1170405   -4.1375689   0.11592676 
   28600    938.89746   -15.139261   -5.1729594   0.12213203   -4.1321581    0.1204211 
   28700    917.00855    16.497452   -5.1721062   0.11745219   -4.1363913   0.11938709 
   28800    906.19255     22.96426   -5.1716371   0.11499841   -4.1489702   0.11901291 
   28900    874.82983    58.499257   -5.1702232   0.10903052     -4.13772   0.11681771 
   29000    913.77386    9.5550073   -5.1808445   0.12146371    -4.142773    0.1146829 
   29100    883.07532   -21.019477   -5.1783979   0.11200541   -4.1458953   0.11603431 
   29200    888.65098   -77.102018   -5.1805596   0.10830335   -4.1529515   0.12103395 
   29300    878.20153   -49.338875   -5.1742892   0.11052457   -4.1408356   0.11622875 
   29400    922.86745   -7.0205936   -5.1795628   0.11895801   -4.1454475   0.11941884 
   29500    897.06951    7.4303611   -5.1764966     0.112849   -4.1444342   0.11877444 
   29600    904.40723   -13.535289   -5.1769287   0.11845984   -4.1453637   0.11520942 
   29700    893.30596   -23.871973   -5.1709196    0.1110103   -4.1521982   0.11959736 
   29800    898.29563   -23.990344   -5.1788718   0.11260251   -4.1520404   0.11932459 
   29900    868.69139   -1.2841095   -5.1921916    0.1166339   -4.1559798   0.10789956 
   30000    909.64348    21.236727   -5.1810807   0.11687991   -4.1484175   0.11806914 
   30100    902.64987    31.296262   -5.1776665    0.1171552   -4.1448223   0.11602535 
   30200    890.43775    36.930249   -5.1830418    0.1169019   -4.1477659   0.11316686 
   30300     928.8316    60.515252   -5.1849546    0.1222398   -4.1486303   0.11775866 
   30400     919.4804    14.751104    -5.180693   0.11577782    -4.151879   0.12163565 
   30500    877.07852   -42.674804   -5.1819835   0.11644883    -4.151285   0.11021018 
   30600    872.29384   -19.303366   -5.1786135   0.11110609   -4.1477066   0.11416459 
   30700    919.44611   -0.0131478    -5.175208   0.12050933   -4.1482645   0.11704805 
   30800     886.2703   -21.449973   -5.1829296   0.11875355   -4.1552694   0.11031582 
   30900    901.54741   -10.796757   -5.1779262   0.11552489   -4.1538305    0.1173229 
   31000    933.00262   -7.4522567   -5.1767156   0.12532826   -4.1476285   0.11582985 
   31100    909.57828   -5.8693474   -5.1728705   0.12229563   -4.1430527   0.11281155 
   31200    869.07303   -67.193843   -5.1723156   0.11257534   -4.1524733   0.11192419 
   31300    915.29679   -39.655627   -5.1812413   0.12398058   -4.1538947   0.11263426 
   31400    888.62656   -54.171362   -5.1814903   0.12018278   -4.1561705   0.10953152 
   31500    903.36149   -78.444971   -5.1878213   0.12083504   -4.1600776   0.11264507 
   31600     922.6758   -14.188154    -5.185428   0.11884631   -4.1629981   0.11947823 
   31700    880.87003   -14.609241   -5.1874422   0.11234798   -4.1680961   0.11514233 
   31800    910.17377     49.93716   -5.1926374   0.11776041   -4.1626724   0.11735181 
   31900    883.19724    23.327774   -5.1965249   0.11362103   -4.1719221   0.11450179 
   32000    886.41128    28.154418   -5.1974528   0.11464393   -4.1696931   0.11432871 
   32100    880.80627    16.264061   -5.1976882   0.11253425   -4.1689423   0.11494587 
   32200    917.62162    37.647953   -5.1963083   0.11780434   -4.1735234    0.1192021 
   32300    888.20171    38.042316   -5.1951058   0.11485127   -4.1718002   0.11458308 
   32400    939.23965    20.990512   -5.1933738   0.11790738   -4.1697363   0.12459644 
   32500    887.67536    17.175882   -5.1982819   0.11769335   -4.1707295   0.11169891 
   32600    902.58918    7.7537482   -5.1921862   0.11534824   -4.1679739   0.11775861 
   32700    906.46241   -9.9427522   -5.1971707   0.11308929   -4.1688603   0.12092903 
   32800    884.42792   -3.0090357   -5.1898136   0.10657017   -4.1682367   0.12163797 
   32900    896.44161    5.9929724   -5.1905178   0.10952802   -4.1748942   0.12182871 
   33000    920.64652    34.547842   -5.1938811   0.11254298   -4.1723094    0.1250625 
   33100    883.48942   -5.0656641   -5.1977078   0.11177233   -4.1652338   0.11636511 
   33200    895.17075   -30.655041   -5.1955922    0.1116611   -4.1663249   0.11944146 
   33300    930.42339   -18.630146   -5.1967957   0.11917253   -4.1695126   0.12113152 
   33400     877.4214    6.7181634   -5.1932317   0.10809011   -4.1643069   0.11838641 
   33500    876.47321    -48.35911   -5.1991534   0.11064228   -4.1720282   0.11567559 
   33600    922.63825   -19.121625   -5.1959839   0.11303996   -4.1756112   0.12508773 
   33700    922.83529    -32.15838   -5.1994664    0.1173369   -4.1716264   0.12097948 
   33800     883.2634   -16.960016   -5.1996518    0.1145428   -4.1700203   0.11362656 
   33900      878.687   -28.853041   -5.2048284   0.11444587   -4.1730046   0.11255731 
   34000    920.56733   -32.066271    -5.202592    0.1165504   -4.1703177   0.12116423 
   34100    916.64766   -65.268324   -5.2147103   0.11752772    -4.181945   0.11922228 
   34200    916.70885    -70.67281   -5.2102959   0.11401045   -4.1831082   0.12264164 
   34300    903.12027   -28.364546   -5.2111528   0.11569856   -4.1807985   0.11755455 
   34400    864.12533     8.727938   -5.2155352   0.11000065   -4.1827201    0.1131584 
   34500    917.61683     60.85217   -5.2227705   0.11921288   -4.1865686   0.11783779 
   34600    884.26475    2.8241274   -5.2233585   0.11553557   -4.1894992    0.1129203 
   34700    879.68387   -4.8103127   -5.2166374   0.10969423   -4.1940944   0.11740902 
   34800    895.72699    24.401223   -5.2167464   0.11079942   -4.1926962   0.12041672 
   34900    902.35292    15.120838   -5.2162539   0.11515189   -4.1876827   0.11788857 
   35000    884.86719     23.58457   -5.2185884   0.11073803   -4.1964436   0.11771619 
   35100    893.85795     21.87137    -5.221182    0.1123009   -4.1967283   0.11848867 
   35200    949.56274    53.309607   -5.2260428   0.12524068   -4.1929656   0.12012323 
   35300    890.78318    1.4025032   -5.2248482   0.11697858    -4.199084   0.11318045 
   35400    874.33392    14.724993   -5.2220898   0.11377724   -4.2001462   0.11209807 
   35500     903.3532    43.352694   -5.2287487   0.11832008   -4.1904683   0.11507679 
   35600    904.61875     41.59222   -5.2286868   0.11557861   -4.1912918   0.11805146 
   35700    898.81334   -0.7094135   -5.2317248   0.11641016   -4.2047566   0.11577134 
   35800    899.25333    9.9948316    -5.232418   0.11530014   -4.2111637   0.11695737 
   35900     959.1936    23.487807   -5.2265939   0.12186419   -4.2107343   0.12583841 
   36000    905.23988    23.655257   -5.2269679   0.11871001    -4.203084   0.11517893 
   36100    882.98635    27.278948   -5.2315451   0.10915977   -4.2070895   0.11876554 
   36200    897.42001    1.4592936   -5.2327662   0.11649955   -4.1996647   0.11533073 
   36300    937.92095   -5.0580845   -5.2348151   0.12622247   -4.1987983   0.11621444 
   36400    894.27442   -1.1893745   -5.2281735   0.11296434   -4.2034463   0.11795247 
   36500    932.30162   -17.246513   -5.2289107   0.11742942   -4.2070846   0.12329574 
   36600    907.35809    23.918697    -5.226843   0.11836481     -4.20103   0.11605132 
   36700    863.81456   -6.2989325   -5.2346133   0.10783491   -4.2117821    0.1151753 
   36800    891.95078    7.4763559   -5.2408277   0.11392778   -4.2150714   0.11642958 
   36900    940.31063    22.168395   -5.2367438   0.11789667   -4.2096034   0.12487899 
   37000    928.03558  -0.69638342     -5.23632   0.11582643   -4.2101283   0.12376284 
   37100    907.45373    4.7400904   -5.2309021   0.10801205   -4.2155852   0.12609443 
   37200      904.252   -9.9335079   -5.2334441   0.11121966   -4.2155525   0.12217659 
   37300    905.96076   -19.368731   -5.2322143   0.11445734   -4.2074949   0.11947763 
   37400     907.1097   -44.901941   -5.2291759   0.11598441   -4.2074373   0.11829181 
   37500     874.6604    -32.03099   -5.2404472   0.10909358   -4.2157519   0.11671361 
   37600    902.24308   -23.959333   -5.2417032   0.10937035   -4.2182166   0.12345569 
   37700    896.54579    13.893204   -5.2373726   0.11031221   -4.2146436    0.1210963 
   37800    887.57252   -18.163947   -5.2379342   0.10652437   -4.2192417   0.12248147 
   37900    896.65474    12.666327   -5.2333881   0.10725259   -4.2191869   0.12408491 
   38000    915.85242    39.446299    -5.242905   0.11567299    -4.219644   0.12081507 
   38100    915.49987    76.468338   -5.2364812   0.11150234   -4.2180705   0.12476159 
   38200    910.93545    117.06468   -5.2387879   0.11344352   -4.2197782   0.12172302 
   38300    930.70465     70.22437   -5.2294825    0.1104999   -4.2171216   0.12959586 
   38400    892.74757    59.985316   -5.2394354   0.11309921   -4.2224783   0.11743392 
   38500    877.98082    27.653626   -5.2371987   0.10407898   -4.2277825   0.12241032 
   38600    899.03812   -2.2171829   -5.2456366   0.11049911    -4.225954   0.12154883 
   38700    952.46623     37.60451   -5.2449893   0.12167975   -4.2224997   0.12430719 
   38800    885.71464    16.265944   -5.2481828   0.11211489   -4.2269155   0.11659912 
   38900    897.02392    -8.331468   -5.2442624   0.11205045    -4.224131   0.11953565 
   39000    906.50916   -15.327039   -5.2428117    0.1131296   -4.2276807   0.12090191 
   39100    900.18813   -3.8028891   -5.2392719   0.11234155   -4.2297613   0.12005809 
   39200    880.07507   -6.5257187   -5.2449379   0.11213684   -4.2312486   0.11514462 
   39300    880.97563    21.301148   -5.2447185   0.10853496   -4.2320861   0.11885918 
   39400    911.77341    30.780482   -5.2461737    0.1144272   -4.2324776   0.12098403 
   39500    916.16821    31.226965   -5.2453586   0.11273398   -4.2340901   0.12373954 
   39600    892.55091    13.257714   -5.2481492   0.11157353   -4.2385602    0.1188604 
   39700    898.66552   -5.3256357   -5.2454483   0.11129966    -4.233671   0.12067942 
   39800    912.06963   0.19522461   -5.2451986   0.11545444   -4.2283094   0.12006521 
   39900    907.98687   -27.511092   -5.2481916    0.1175795   -4.2362001   0.11697109 
   40000    918.48862    4.6639951   -5.2423001   0.11215323   -4.2425357   0.12489126 
   40100    853.34807    13.540591    -5.246862    0.1087377   -4.2343517   0.11164166 
   40200    900.01916   -24.454981   -5.2545061   0.11181469   -4.2467747   0.12052501 
   40300    902.48221    11.368015    -5.256513   0.11441031   -4.2464092   0.11863909 
   40400    894.06514   -3.3775076   -5.2527709   0.11208979   -4.2347979   0.11874562 
   40500    913.25145    50.536212   -5.2477234   0.11609976   -4.2350899   0.11974106 
   40600    902.97867    11.931105   -5.2536372   0.11509712   -4.2410288   0.11810061 
   40700    889.89709   -6.1972791   -5.2531319   0.11523011   -4.2317256   0.11464733 
   40800    910.77348    -25.06988    -5.255494   0.11791559   -4.2345582   0.11735404 
   40900     896.3804    3.1256276   -5.2466764   0.11242653   -4.2341914   0.11900815 
   41000    879.44244   -65.806069   -5.2602641    0.1146289   -4.2364614   0.11257218 
   41100    916.23532   -67.621647   -5.2655386   0.11960395   -4.2312762   0.11710823 
   41200    864.34771   -92.187752   -5.2668342   0.11452585   -4.2343266   0.10883569 
   41300    922.06141   -15.896136   -5.2709764   0.12431293   -4.2360071   0.11403181 
   41400    877.72629    10.597372   -5.2687186   0.12128742   -4.2383472    0.1056923 
   41500    928.94984    46.873326   -5.2659095   0.12095789   -4.2371519   0.11902926 
   41600    901.49696    25.714376   -5.2650724   0.11686757   -4.2392465    0.1160107 
   41700    892.91616    76.454676   -5.2625787    0.1158498   -4.2436232    0.1148149 
   41800    877.42861    85.346853   -5.2605811   0.11022313   -4.2443234   0.11632403 
   41900    919.35884    55.471381   -5.2664412   0.11888701   -4.2445752   0.11859586 
   42000    888.37425    49.751326   -5.2639179   0.11459615   -4.2436268   0.11487382 
   42100    897.10594   -22.617205   -5.2641904    0.1105393   -4.2437537   0.12101889 
   42200    905.53665   -23.871244   -5.2722514   0.11995846   -4.2447955   0.11404617 
   42300    871.55154   -38.381169   -5.2739084   0.11355329   -4.2427742   0.11160768 
   42400    941.02944    13.440879   -5.2675259   0.12612539   -4.2405029   0.11709839 
   42500     925.5708    41.086618   -5.2686767   0.12680384   -4.2416266   0.11251314 
   42600    917.66094    45.358056   -5.2654213   0.11702575    -4.249019   0.11996557 
   42700    908.99098   0.47031819   -5.2702232   0.11957969    -4.253096   0.11529061 
   42800    885.86957   -11.969353   -5.2667129   0.11688747   -4.2482299   0.11201987 
   42900    887.90801   -3.7900099   -5.2683128   0.11674429    -4.246789   0.11267649 
   43000    911.18189    7.0820896   -5.2678589   0.12071949   -4.2475231   0.11474439 
   43100    900.39921    19.985758   -5.2677494   0.11969973   -4.2494452   0.11299091 
   43200    843.07786   -3.2782581   -5.2695055   0.11221637   -4.2482304   0.10566511 
   43300    911.06881    6.0176915   -5.2759237   0.11950579   -4.2452355    0.1158902 
   43400    912.69989    42.679279    -5.274254   0.11863535    -4.243184   0.11714709 
   43500    884.88508    4.7351646    -5.273556   0.11078815   -4.2465568   0.11767223 
   43600     949.5007   -6.2410036   -5.2770351   0.12551504   -4.2463388   0.11984195 
   43700    908.37397   -6.6921417   -5.2733014   0.12020801   -4.2446285   0.11452576 
   43800    871.08591    34.456158   -5.2792065    0.1103693   -4.2502165   0.11457062 
   43900    914.27778    22.917432   -5.2822131   0.11580711    -4.257264    0.1202851 
   44000    908.33395     72.22346   -5.2779852    0.1186819   -4.2596151   0.11599247 
   44100    861.77056    19.195822   -5.2766003   0.11415359   -4.2563902   0.10854098 
   44200    880.13106    24.972486   -5.2736699   0.11791739   -4.2550912   0.10956478 
   44300    910.52714    25.278502   -5.2768126   0.12012084   -4.2563849   0.11515733 
   44400    889.93491   -9.7917173   -5.2660798   0.11244736   -4.2556127   0.11734992 
   44500    867.54078    -43.18617   -5.2739506   0.11109241   -4.2499934   0.11296987 
   44600    919.11394   -69.263448   -5.2829996   0.12008856   -4.2526621   0.11737083 
   44700    873.34585   -59.950034   -5.2799953   0.11263168   -4.2508137   0.11295556 
   44800    882.67432   -69.545876   -5.2846538   0.11559685   -4.2527779   0.11245681 
   44900     888.0765   -17.886625    -5.282186   0.11807156   -4.2473853   0.11143485 
   45000     915.3359    19.253368   -5.2801745   0.11993183   -4.2485839   0.11656234 
   45100    880.94551   -32.837071   -5.2811675   0.11422597   -4.2550487    0.1133441 
   45200     884.0266   -33.854919   -5.2779871   0.11353328     -4.25708   0.11479748 
   45300    949.67611   -56.519922   -5.2854988   0.12869504   -4.2530251   0.11680912 
   45400    882.50967    -61.58321   -5.2788815   0.11320793   -4.2494626   0.11472682 
   45500    908.09111   -16.099959   -5.2808556   0.11706424   -4.2509529   0.11749623 
   45600    915.54898   -19.075067   -5.2797004   0.12093191   -4.2545891   0.11564868 
   45700    911.31089    42.095144   -5.2743163   0.11630042   -4.2545129   0.11905369 
   45800    901.35665    24.759911   -5.2729359   0.11224716   -4.2591243   0.12044641 
   45900    893.33842    13.672222   -5.2820094   0.11607447   -4.2616161   0.11470479 
   46000    895.03227   -6.1896366   -5.2841927   0.11959591   -4.2589495   0.11172742 
   46100    900.69827   -13.261988    -5.291366   0.12107184   -4.2570105   0.11173907 
   46200    901.85051    45.574838   -5.2849066     0.119067   -4.2556903   0.11397207 
   46300    911.10292    2.9214136   -5.2853312    0.1160775   -4.2627321   0.11921656 
   46400     899.8273    28.691646    -5.289517   0.11658791   -4.2557854   0.11585701 
   46500    886.17659   -11.608679   -5.2944542   0.12102815    -4.253567   0.10809079 
   46600    935.62314   -38.843348    -5.294001   0.12652141   -4.2606136   0.11534118 
   46700    898.81208   -34.558431   -5.2967635   0.12101559   -4.2556863   0.11131415 
   46800    887.22176    -65.60252    -5.296867   0.12156919   -4.2531272   0.10783281 
   46900    929.13819   -0.7491445   -5.2964735   0.12557214   -4.2475644   0.11461173 
   47000    915.37211     11.02268   -5.3052431   0.12311199   -4.2567613   0.11349397 
   47100    889.22624   -5.4654012   -5.3054603   0.11841292   -4.2595035    0.1113967 
   47200    897.62922   -45.721367   -5.3068102    0.1155688    -4.268477   0.11628463 
   47300     901.6863   -38.847479   -5.3057997   0.11319368   -4.2696398    0.1196142 
   47400    868.80017    -14.32121   -5.3049208   0.11285704   -4.2711115   0.11158223 
   47500     886.5087    9.1065889   -5.3138408   0.12151408   -4.2710886   0.10770493 
   47600    924.59635   -18.236091   -5.3054866   0.11737864   -4.2704183   0.12138665 
   47700    884.24916   -27.432462   -5.3106888   0.11056067   -4.2816364   0.11773076 
   47800    911.68112   -16.253012   -5.3127457   0.11517172   -4.2763643   0.12024007 
   47900     927.6427    8.2276089   -5.3029441   0.11694592   -4.2660114   0.12257962 
   48000    907.78515   -7.9549561   -5.3137056   0.11830835   -4.2699692   0.11621449 
   48100    906.91893   -17.626378   -5.3127425   0.11756373   -4.2690577   0.11671495 
   48200    914.38971    21.219546   -5.3124977   0.12208086   -4.2685369   0.11424218 
   48300    896.59528   -2.2443458   -5.3118986   0.11976173   -4.2715954   0.11196418 
   48400    869.29372    23.403934   -5.3148802   0.11648988   -4.2742372   0.10819201 
   48500    928.70109    32.410587   -5.3089793   0.12031615   -4.2715152   0.11958708 
   48600    907.40294   -10.800569   -5.3089533   0.12065171   -4.2725722   0.11384959 
   48700    888.95398    6.9409141   -5.3114111   0.11830952   -4.2704156   0.11142757 
   48800    873.83205    -30.67879   -5.3097454   0.11561314   -4.2718414   0.11019385 
   48900    868.63428   -16.909019   -5.3103267   0.11457875   -4.2689414    0.1098739 
   49000    906.51603   -27.963559   -5.3052583   0.11742594   -4.2702928    0.1167459 
   49100    920.00522    15.297892   -5.3065159   0.11753737   -4.2700863   0.12006624 
   49200    876.29088   -3.0699342   -5.3124072   0.11439244   -4.2742464   0.11200007 
   49300    889.29024   -3.0248092   -5.3075577   0.11279611   -4.2726859   0.11684858 
   49400    908.92634   -42.753122   -5.3151803   0.12188739   -4.2716477   0.11304094 
   49500     910.3143   -21.011359   -5.3089603   0.11899135    -4.268267   0.11619629 
   49600    897.25715   -40.382233   -5.3154452   0.11767283   -4.2687153   0.11415391 
   49700     873.2934   -52.722066   -5.3096499   0.11088554     -4.26802   0.11463205 
   49800    888.85872   -53.345183   -5.3140112   0.11650318    -4.270121   0.11315143 
   49900    916.17413    21.192474   -5.3188674   0.11783783   -4.2740382   0.11880182 
   50000    884.28028    6.9396615   -5.3170312   0.11124347   -4.2821835    0.1170779 
Loop time of 109.391 on 4 procs for 50000 steps with 1220 atoms

Performance: 3.949 ns/day, 6.077 hours/ns, 457.077 timesteps/s
99.6% CPU use with 4 MPI tasks x 1 OpenMP threads

MPI task timing breakdown:
Section |  min time  |  avg time  |  max time  |%varavg| %total
---------------------------------------------------------------
Pair    | 16.286     | 59.031     | 105.9      | 429.6 | 53.96
Neigh   | 0.10329    | 0.14385    | 0.16867    |   6.8 |  0.13
Comm    | 1.5339     | 48.46      | 91.276     | 474.9 | 44.30
Output  | 0.65683    | 0.65916    | 0.66387    |   0.3 |  0.60
Modify  | 0.53194    | 0.69361    | 0.88008    |  16.6 |  0.63
Other   |            | 0.4033     |            |       |  0.37

Nlocal:        305.000 ave         449 max         146 min
Histogram: 1 0 0 0 0 2 0 0 0 1
Nghost:        340.500 ave         427 max         226 min
Histogram: 1 0 0 0 0 1 0 1 0 1
Neighs:         0.00000 ave           0 max           0 min
Histogram: 4 0 0 0 0 0 0 0 0 0
FullNghs:      7657.00 ave       10833 max        3264 min
Histogram: 1 0 0 0 0 1 0 1 0 1

Total # of neighbors = 30628
Ave neighs/atom = 25.104918
Neighbor list builds = 93
Dangerous builds = 0
reset_timestep 0
unfix 1
velocity 3 zero linear
velocity 3 zero angular
fix 1 3 nvt temp $t 300 0.001
fix 1 3 nvt temp 900 300 0.001
thermo_style custom step temp press c_ape_C c_ake_C c_ape_Si c_ake_Si
thermo 100
timestep 0.0001
run 5000
WARNING: More than one compute ke/atom (src/compute_ke_atom.cpp:56)
WARNING: More than one compute ke/atom (src/compute_ke_atom.cpp:56)
Neighbor list info ...
  update every 1 steps, delay 100 steps, check yes
  max neighbors/atom: 2000, page size: 100000
  master list distance cutoff = 5.55
  ghost atom cutoff = 5.55
  binsize = 2.775, bins = 54 31 49
  1 neighbor lists, perpetual/occasional/extra = 1 0 0
  (1) pair kim, perpetual
      attributes: full, newton off, ghost, cut 5.55
      pair build: full/bin/ghost
      stencil: full/ghost/bin/3d
      bin: standard
Per MPI rank memory allocation (min/avg/max) = 4.863 | 4.865 | 4.867 Mbytes
Step Temp Press c_ape_C c_ake_C c_ape_Si c_ake_Si 
       0    884.28027     6.939661   -5.3170312   0.11124308   -4.2821835   0.11707827 
     100    900.86361   -4.2595507   -5.3168551   0.11294422   -4.2790016   0.11964653 
     200    869.72333    6.6653033   -5.3220172   0.11496178   -4.2824869      0.10978 
     300    841.71227    8.9111021   -5.3179133   0.10592547   -4.2833414   0.11140603 
     400    841.58558    25.986678   -5.3177364   0.10845286   -4.2796756   0.10892797 
     500    830.47561   -18.364507   -5.3216969   0.10971206   -4.2774655   0.10488588 
     600    851.60681    -24.72093   -5.3295815   0.11209583   -4.2855058   0.10794932 
     700    819.56737   -53.070612   -5.3263959   0.10841049   -4.2903527   0.10337322 
     800    816.53904   -5.4411527   -5.3317932   0.10970964   -4.2839384   0.10134634 
     900    783.71644     4.871657   -5.3344004   0.10374927   -4.2921589  0.098772837 
    1000     817.7688    5.5811905   -5.3398639   0.11223974   -4.2981925  0.099210391 
    1100    748.50345   0.20532708   -5.3461628   0.10104464   -4.3026149  0.092441118 
    1200    766.44061   -8.0282813   -5.3440571  0.099625361   -4.3062334  0.098373205 
    1300    765.21772   0.95711125   -5.3511686    0.1050862   -4.3028441  0.092777738 
    1400    709.02598    30.041706   -5.3539601  0.096360482   -4.3055848  0.086941289 
    1500    723.52161    17.343123   -5.3464404    0.0935782   -4.3048439  0.093317771 
    1600    712.46931    41.626276   -5.3524139  0.096248182   -4.3036872  0.087925062 
    1700    692.14718    10.232335    -5.353355  0.092940596   -4.3088579  0.085961242 
    1800    702.47182    32.926409   -5.3557186  0.090862525   -4.3111133  0.090596205 
    1900    655.62009    54.598685   -5.3575536  0.086414156   -4.3139597  0.082994079 
    2000    657.96247     41.06574   -5.3582529  0.087073432   -4.3128631  0.082951367 
    2100    658.17665    25.461934   -5.3604668  0.085974537   -4.3199433  0.084069246 
    2200    626.16283    52.113621   -5.3641137  0.081737393   -4.3207792  0.080033649 
    2300    628.09737    48.068948   -5.3653403  0.082505881   -4.3210226  0.079781599 
    2400     611.2294    63.106887   -5.3684676  0.083906673   -4.3225298  0.074139132 
    2500    601.19819    22.669068   -5.3662626   0.08154422   -4.3226331  0.073876022 
    2600    585.19799    16.151804   -5.3689941  0.077877707   -4.3273227  0.073357936 
    2700    587.23062   -39.616935   -5.3713651  0.078526867   -4.3336571  0.073246294 
    2800     548.7257    -26.82895   -5.3733136  0.072863883   -4.3342328   0.06894088 
    2900    537.75766   -36.753099   -5.3721609  0.071720902   -4.3353237   0.06725955 
    3000    537.48037    15.222247    -5.374387   0.07296282   -4.3355491  0.065987221 
    3100    523.15568    5.9435975   -5.3753823   0.06889398   -4.3417057  0.066284302 
    3200    502.46049   -2.0453533    -5.377938  0.069269996   -4.3415055  0.060660896 
    3300    512.39844 -0.036146173   -5.3780082  0.068742895   -4.3430443  0.063696644 
    3400    478.44417   -21.274703   -5.3779051  0.060031578    -4.348664  0.063497743 
    3500    465.72657  -0.54638383   -5.3835565  0.060968067   -4.3478605  0.059359383 
    3600    456.61214   -19.416993    -5.384929  0.059735056   -4.3506129   0.05823626 
    3700    458.57832   -11.144979   -5.3876252  0.061121171   -4.3545406  0.057394549 
    3800    483.15131   0.40981056    -5.386518  0.064753048   -4.3539877  0.060124861 
    3900    427.85028    12.052746   -5.3876987  0.060483143   -4.3513223  0.050202705 
    4000    419.11459   -17.086861   -5.3875403  0.056824884   -4.3528024  0.051522849 
    4100    416.75793   -49.546456   -5.3880545  0.056091492   -4.3582463  0.051633657 
    4200    393.14911   -55.796858   -5.3899168  0.052597905   -4.3609523  0.049014552 
[...]
   37300    1454.2274   -3.0259847   -5.3817668   0.19323889   -4.1303934   0.18257507 
   37400    1450.7761   -7.6124613   -5.3952803   0.20141294   -4.1307142   0.17378758 
   37500    1522.1632    34.611485   -5.3806373    0.2054043   -4.1132306   0.18806744 
   37600    1505.8331    4.1150049   -5.3834204   0.20606921   -4.1170579    0.1832738 
   37700    1490.1017   -48.068464   -5.3790335   0.20404543    -4.123848    0.1812343 
   37800    1519.3651   -32.908525    -5.376326   0.20656267   -4.1254354   0.18623532 
   37900    1503.1917   -41.884579   -5.3734611   0.19895999   -4.1196715   0.18948239 
   38000    1445.4921   -42.634444   -5.3783864   0.19754441   -4.1167548   0.17618841 
   38100    1484.7803   -50.948935     -5.38905   0.19939684   -4.1166266   0.18438053 
   38200    1572.3746   -47.068607   -5.3866998   0.20831449   -4.1167345   0.19801195 
   38300    1529.1854   -68.976266   -5.3881521    0.2128445   -4.1167713   0.18265187 
   38400    1510.5726   -49.947266    -5.378647   0.20307612   -4.1243224   0.18737484 
   38500    1461.7634   -15.892655   -5.3900832   0.18994504   -4.1279396   0.18767788 
   38600    1485.5276   -29.926574   -5.3941416   0.19331503   -4.1282867   0.19045608 
   38700    1442.9172    26.193012   -5.3853399   0.18657942   -4.1275152   0.18614532 
   38800    1458.7386   -20.922045   -5.3946116   0.19628598   -4.1342606   0.18077276 
   38900    1526.7058    33.503105   -5.3940805   0.20115144   -4.1363483   0.19333757 
   39000    1508.3151    68.971351   -5.3911019   0.19957714   -4.1285171   0.19018723 
   39100    1484.2868   -13.867691   -5.3853434   0.19752329   -4.1298495   0.18606824 
   39200    1493.5624    1.0099259   -5.3919858   0.19712783   -4.1267878   0.18880826 
   39300    1525.6312    23.865885    -5.388208   0.19461828   -4.1269646   0.19938687 
   39400    1479.7704    36.224287   -5.3879391   0.19310894   -4.1316922   0.18919238 
   39500    1553.3269    51.540112   -5.3866901   0.21144896   -4.1236076   0.19013778 
   39600    1533.6355    51.886312   -5.3875193   0.20692778   -4.1216412   0.18950869 
   39700    1435.8033    67.977808   -5.3919257   0.19240701   -4.1340236   0.17869776 
   39800    1472.3462    27.666986    -5.389553   0.19674448   -4.1352349   0.18378732 
   39900    1526.5232    19.412613   -5.3927738   0.20522969   -4.1352033   0.18934447 
   40000    1485.2946   -10.727867   -5.3847901   0.18988555   -4.1370307   0.19371572 
   40100    1460.1776    6.0681366   -5.3924779   0.19121632   -4.1356183   0.18604459 
   40200     1534.434   -17.540717   -5.3948971   0.20118221   -4.1324192   0.19527186 
   40300    1502.1456   -49.097567   -5.3995348   0.19972784   -4.1342176   0.18847345 
   40400    1478.5516    7.1662628   -5.3837706   0.19310774   -4.1286518   0.18888378 
   40500     1521.821   -98.350554   -5.3961669   0.20493308   -4.1305621   0.18843648 
   40600    1492.8012   -57.241911   -5.3906645   0.19937737   -4.1206831   0.18643784 
   40700    1510.5395    -50.16234   -5.3906724   0.19774205   -4.1163931   0.19252843 
   40800    1490.1979   0.84645863   -5.4026962   0.20251941   -4.1149523   0.18273552 
   40900    1456.4485   -28.411602    -5.403095   0.19670299   -4.1212649   0.17978719 
   41000    1515.3912    12.221733   -5.4001296   0.19758298    -4.123653    0.1939154 
   41100    1498.5292    48.729348   -5.4108309   0.19537166   -4.1368507   0.19177005 
   41200    1438.9667   -18.497515   -5.4089037   0.18457608   -4.1430746   0.18708004 
   41300    1507.3394    37.584386    -5.404502   0.19805404   -4.1360564   0.19141325 
   41400    1546.6222   -2.3765991   -5.4031534   0.19065175   -4.1385828   0.20856017 
   41500     1476.636   -7.7832057   -5.4106671   0.18499596   -4.1478313   0.19624705 
   41600    1494.9718    20.940774   -5.4160412   0.20048077   -4.1383182   0.18592165 
   41700    1550.5919    31.305996   -5.4112969   0.20202943   -4.1409971   0.19855838 
   41800    1507.2706    75.983187   -5.4134088   0.20454519   -4.1399586   0.18511399 
   41900    1491.7911    59.169002   -5.3974366   0.19553116   -4.1338616   0.18990326 
   42000    1549.9979    105.14219   -5.4059721   0.21062805    -4.135811   0.19008618 
   42100    1455.8026    107.52428   -5.4019672   0.19465207   -4.1336227    0.1816078 
   42200    1488.8673    45.586418   -5.3989325   0.19741858   -4.1402328   0.18733365 
   42300    1484.2868    11.344646   -5.4102763   0.20268103   -4.1367835   0.18107687 
   42400    1522.9247    7.6898743   -5.4040559    0.2039673   -4.1408183   0.18965161 
   42500    1463.9252   -22.432161   -5.4109116   0.18872892   -4.1574793   0.18940416 
   42600    1480.8264    57.151581   -5.3994039    0.1929346   -4.1576683   0.18962946 
   42700    1562.9363    38.246738   -5.4041203   0.20774374   -4.1593467   0.19616561 
   42800    1470.9363   -11.765342   -5.4075107   0.19788462    -4.157707   0.18232564 
   42900    1440.7799     4.337002   -5.3991298   0.19346714     -4.15319   0.17893661 
   43000    1539.1035   -33.720258   -5.4000238   0.19766903   -4.1477596   0.19985842 
   43100    1551.4484    51.495711   -5.4103126   0.21602515   -4.1395935    0.1852318 
   43200     1478.293    7.6747979    -5.411845   0.19562837   -4.1473557   0.18637874 
   43300    1490.2786    2.3438527    -5.416209   0.20323082    -4.150964   0.18206757 
   43400    1458.8757   -6.5949798   -5.4016167   0.19382404   -4.1427243   0.18319011 
   43500    1556.6844    5.7236769    -5.409201   0.20848918    -4.149604   0.19385537 
   43600    1491.7992   -19.257795   -5.4078613   0.18782235   -4.1588799   0.19736545 
   43700    1486.8569   -35.248174   -5.4145855   0.19249017   -4.1536908   0.19159216 
   43800     1499.958    11.805694   -5.4193628   0.20403816   -4.1425561   0.18374624 
   43900    1436.9382    21.381464   -5.4121595   0.18791585   -4.1476278   0.18333249 
   44000    1457.6602    21.855799   -5.4158294   0.18660167   -4.1545243    0.1898706 
   44100    1520.5027    33.580132    -5.425771   0.20458133   -4.1420576   0.18844187 
   44200    1490.9616   -16.858616   -5.4066686   0.20204201   -4.1378258   0.18339163 
   44300    1497.4433   -16.963103   -5.4054847   0.19376199   -4.1452662   0.19305181 
   44400    1551.0079   -41.192865   -5.4160329   0.20400727   -4.1423154   0.19675006 
   44500    1408.2118   -92.665925   -5.4256658   0.19149764   -4.1481789   0.17256565 
   44600    1504.3203   -49.169571   -5.4297694   0.19771706    -4.160632   0.19097205 
   44700    1558.1648   -38.046347   -5.4326583   0.20545888   -4.1571095   0.19716414 
   44800    1523.4073    10.120967   -5.4363107   0.20994785   -4.1500358   0.18398664 
   44900    1514.5074    -2.482974   -5.4254872   0.19855566   -4.1515139   0.19274949 
   45000    1489.5043    55.253937   -5.4375714   0.19093257   -4.1531443   0.19377232 
   45100    1401.5967    16.702624   -5.4225196   0.17647858   -4.1547697   0.18541905 
   45200    1488.1999    18.516528   -5.4376666   0.19923646   -4.1553735    0.1854048 
   45300    1523.4601    24.535404   -5.4254284   0.19469236   -4.1489119   0.19876343 
   45400    1472.3584    21.198693   -5.4326063   0.19392014   -4.1510301   0.18652364 
   45500    1466.9312    40.806177   -5.4375818   0.18989844   -4.1510712   0.18903633 
   45600    1491.5619   -27.773693   -5.4412029   0.19772486   -4.1568322   0.18772207 
   45700    1501.9126   -11.833809   -5.4371968   0.19862998   -4.1540344   0.18947669 
   45800    1516.8356   -95.700199   -5.4369923   0.19490525   -4.1586148   0.19687384 
   45900    1544.7198   -32.163169   -5.4497245   0.21287194   -4.1511734   0.18657327 
   46000    1444.1128   -57.887668   -5.4531048   0.19808499   -4.1512638   0.17531475 
   46100    1467.2829   -7.3121068   -5.4354799   0.19202155     -4.14694   0.18707109 
   46200     1528.525    1.3580028   -5.4369374   0.19396741   -4.1454821    0.2007522 
   46300     1510.892    46.809043   -5.4340616   0.19855076   -4.1445564   0.19183541 
   46400    1465.9508     13.47472    -5.433851   0.19852834   -4.1432332   0.18043565 
   46500    1451.3451   -35.862898   -5.4323384   0.19496647   -4.1521309   0.18017069 
   46600    1496.6971   -62.701294   -5.4356376   0.20148268   -4.1541958   0.18539053 
   46700    1517.7343    -13.24759   -5.4389982   0.20429017   -4.1590399   0.18802005 
   46800    1527.6354    -21.62551   -5.4494042   0.20545735   -4.1608149   0.18940681 
   46900    1500.2248    43.864075    -5.439024    0.1980307   -4.1513621    0.1896277 
   47000    1440.1874    98.656902   -5.4361983   0.18917009   -4.1536589   0.18294444 
   47100    1519.0145    81.916554   -5.4429994   0.20433197   -4.1631171   0.18830494 
   47200    1478.7594    136.60846   -5.4315746   0.19885962   -4.1530765   0.18337025 
   47300      1487.59    57.065092   -5.4419498   0.21007521   -4.1556062   0.17476068 
   47400    1526.8677    26.628003   -5.4384113   0.20718128   -4.1646135   0.18754339 
   47500     1498.156   -21.238433    -5.440652    0.1993592   -4.1643993    0.1878163 
   47600    1446.7058   -21.837545   -5.4320419   0.19559138   -4.1497932   0.17838691 
   47700    1509.7644   -62.548511    -5.426863   0.20384655   -4.1560871   0.18642387 
   47800    1512.6405   -99.131963   -5.4357094   0.19858084   -4.1552972   0.19225068 
   47900    1466.5324   -95.755439   -5.4392773   0.19097851   -4.1593188   0.18788975 
   48000    1479.3273   -52.276086   -5.4454731   0.19801531    -4.160119   0.18433166 
   48100    1525.6519    -55.64715   -5.4428984   0.19756848   -4.1604561   0.19653711 
   48200    1487.7904   -13.679407   -5.4414748   0.19097567   -4.1587817   0.19329504 
   48300    1514.7672   -12.914241   -5.4394349   0.19830848   -4.1543579   0.19305471 
   48400    1550.1848   -29.056728   -5.4457307   0.20415804   -4.1607742   0.19639495 
   48500     1462.356   -27.807572   -5.4435184   0.19642727   -4.1581508   0.18155536 
   48600    1503.8957   -18.988655   -5.4455501   0.20157161   -4.1599693   0.18713394 
   48700    1550.4243    19.844615    -5.448391   0.20768666   -4.1636061   0.19304104 
   48800    1501.7504   -19.169945   -5.4468222   0.19909497   -4.1605915   0.18898548 
   48900    1462.6441   -9.2122798   -5.4479699   0.19166104   -4.1643241   0.18624106 
   49000    1503.7204   -64.019021   -5.4494046   0.19672507   -4.1690129   0.19177959 
   49100    1514.1588    -32.02691   -5.4504923   0.20131475   -4.1719869   0.18999082 
   49200    1459.4121  -0.38081053   -5.4370555    0.1877665   -4.1623198   0.18918858 
   49300    1558.1224     4.190129   -5.4386059   0.20315635   -4.1627142   0.19938163 
   49400    1489.9296    5.5347686   -5.4416026   0.19116847   -4.1601227   0.19365213 
   49500    1514.5583    28.444847   -5.4522582   0.20481124    -4.158719   0.18670865 
   49600    1507.6396   -29.477085   -5.4529692   0.19579229   -4.1601089   0.19367832 
   49700    1511.2382    23.257716   -5.4561039    0.1991951   -4.1613421   0.19129983 
   49800    1438.9843   -37.392544   -5.4647033   0.19905799   -4.1676037   0.17306975 
   49900    1504.0231    22.568443   -5.4486469   0.20598128   -4.1615533    0.1828989 
   50000    1450.7182    -6.426503   -5.4586393    0.2010024   -4.1596729   0.17417016 
Loop time of 113.71 on 4 procs for 50000 steps with 1220 atoms

Performance: 3.799 ns/day, 6.317 hours/ns, 439.717 timesteps/s
99.6% CPU use with 4 MPI tasks x 1 OpenMP threads

MPI task timing breakdown:
Section |  min time  |  avg time  |  max time  |%varavg| %total
---------------------------------------------------------------
Pair    | 19.211     | 62.596     | 110.14     | 428.4 | 55.05
Neigh   | 0.14027    | 0.19003    | 0.24335    |   9.4 |  0.17
Comm    | 1.558      | 49.177     | 92.664     | 484.4 | 43.25
Output  | 0.66618    | 0.66823    | 0.67328    |   0.4 |  0.59
Modify  | 0.52362    | 0.70179    | 0.90902    |  17.6 |  0.62
Other   |            | 0.3762     |            |       |  0.33

Nlocal:        305.000 ave         437 max         163 min
Histogram: 1 0 0 0 0 2 0 0 0 1
Nghost:        349.750 ave         440 max         237 min
Histogram: 1 0 0 0 1 0 0 1 0 1
Neighs:         0.00000 ave           0 max           0 min
Histogram: 4 0 0 0 0 0 0 0 0 0
FullNghs:      7872.50 ave       10711 max        4211 min
Histogram: 1 0 0 0 1 0 0 1 0 1

Total # of neighbors = 31490
Ave neighs/atom = 25.811475
Neighbor list builds = 122
Dangerous builds = 0
reset_timestep 0
unfix 1
velocity 3 zero linear
velocity 3 zero angular
fix 1 3 nvt temp $t 300 0.001
fix 1 3 nvt temp 1500 300 0.001
thermo_style custom step temp press c_ape_C c_ake_C c_ape_Si c_ake_Si
thermo 100
timestep 0.0001
run 5000
WARNING: More than one compute ke/atom (src/compute_ke_atom.cpp:56)
WARNING: More than one compute ke/atom (src/compute_ke_atom.cpp:56)
Neighbor list info ...
  update every 1 steps, delay 100 steps, check yes
  max neighbors/atom: 2000, page size: 100000
  master list distance cutoff = 5.55
  ghost atom cutoff = 5.55
  binsize = 2.775, bins = 54 31 49
  1 neighbor lists, perpetual/occasional/extra = 1 0 0
  (1) pair kim, perpetual
      attributes: full, newton off, ghost, cut 5.55
      pair build: full/bin/ghost
      stencil: full/ghost/bin/3d
      bin: standard
Per MPI rank memory allocation (min/avg/max) = 4.864 | 4.865 | 4.867 Mbytes
Step Temp Press c_ape_C c_ake_C c_ape_Si c_ake_Si 
       0    1450.7178   -6.4265464   -5.4586393   0.20099914   -4.1596729    0.1741732 
     100    1473.1536    11.069594   -5.4505581   0.19476638    -4.152539    0.1859068 
     200    1462.6734   -25.448402   -5.4579669   0.19856598   -4.1638039   0.17956629 
     300    1351.4747   -27.399534   -5.4532645   0.18431289   -4.1680885   0.16509935 
     400    1412.1328    10.093894   -5.4630533   0.19366649   -4.1659938   0.17146324 
     500    1370.7481    9.3243423   -5.4666832   0.18600732   -4.1742667   0.16835776 
     600    1307.8362   -9.1788363   -5.4717449    0.1734231   -4.1774473   0.16454746 
     700    1356.8695    17.963949   -5.4748087   0.18066281   -4.1809288   0.17000272 
     800    1327.9993    28.173948    -5.468274   0.17185608   -4.1836806   0.17118821 
     900    1298.3469    1.6163362   -5.4823136   0.16945176   -4.1893589   0.16597907 
    1000    1275.4143    42.560202   -5.4791008   0.16569555    -4.186446   0.16378595 
    1100     1243.845    6.4725202   -5.4947749   0.16279781   -4.1960345   0.15856716 
    1200    1251.0548    -45.74475     -5.49319   0.16596642   -4.1973032   0.15733307 
    1300    1170.3267   -39.510115    -5.492717   0.15486974   -4.1999677   0.14755537 
    1400    1177.3485   -61.043439   -5.5093073   0.16461857   -4.2036057   0.13990555 
    1500    1161.4644   -19.313339   -5.5075252   0.15353451   -4.2037992   0.14659523 
    1600    1093.7393   -74.537214   -5.5151609   0.14159179   -4.2144572   0.14094092 
    1700    1106.3974  -0.83163365   -5.5131542   0.14432176   -4.2078437   0.14151596 
    1800    1043.6182   -17.859586   -5.5242375   0.14181875    -4.217444   0.12798341 
    1900    1011.9432   -17.546959   -5.5225505   0.13661693   -4.2173676   0.12496747 
    2000    1046.5959    -24.66305   -5.5302195   0.14200296   -4.2201563   0.12856189 
    2100     992.7548   -66.333304   -5.5288053   0.12761379   -4.2282419   0.12880359 
    2200     953.5415    8.6253252   -5.5389104   0.12894998   -4.2291974   0.11754476 
    2300    991.00663   -37.010248   -5.5330405   0.12971809   -4.2283222    0.1263229 
    2400    870.49915    19.596995    -5.538893     0.112588   -4.2352097   0.11227438 
    2500    889.44728    20.995354   -5.5480336   0.11470656   -4.2449426   0.11503967 
    2600    886.25351     49.58288   -5.5520287   0.11586918   -4.2477298   0.11310288 
    2700    864.36825   -2.4693462   -5.5538772   0.11333232   -4.2503512   0.10999594 
    2800    827.04666   -39.143424   -5.5577536   0.11165627   -4.2538476   0.10213294 
    2900    788.59087   -45.247662   -5.5589981   0.10330932   -4.2566282    0.1004374 
    3000    776.56641   -56.737762   -5.5628163  0.098222286   -4.2666068   0.10230441 
    3100    746.93573   -56.308071    -5.569314  0.094963401    -4.275183  0.097927767 
    3200     725.5855   -42.081409   -5.5687039  0.093299558    -4.277031  0.094111945 
    3300    704.01751    23.383066   -5.5714903  0.088062633   -4.2851112  0.093698601 
    3400    691.02506   -7.9691981   -5.5791017  0.087715729    -4.288967  0.090732388 
    3500    644.80259   -25.012607   -5.5797027   0.08307998   -4.2907177  0.083471518 
    3600    664.02271   -15.860755   -5.5823582  0.085376095   -4.2917989  0.086134113 
    3700    621.78898    16.726194   -5.5911195  0.084721067   -4.2950949  0.076034644 
    3800     580.6276    13.347309   -5.5892433  0.076236664   -4.2947742  0.073784516 
    3900    565.43683      17.1293   -5.5902858  0.075020927   -4.2978497   0.07110042 
    4000    536.82395    11.986872   -5.5971818   0.06912423   -4.3041557  0.069535163 
    4100    505.81207     18.98193   -5.5991488  0.065830611   -4.3112898  0.064841111 
    4200    512.92136    33.825174   -5.6005413  0.068239786   -4.3152259  0.064316423 
    4300    461.13254     -19.4187   -5.6051332  0.060921654   -4.3204788  0.058236764 
    4400    461.61384   -24.414051   -5.6051837  0.058894985   -4.3228407  0.060320376 
    4500    408.84668   -26.491453   -5.6091263  0.054167752   -4.3264738  0.051484758 
    4600     400.2415   -34.705715   -5.6118609  0.053483959   -4.3286111  0.049959554 
    4700     387.4718   -22.189263   -5.6130821  0.051203112   -4.3331632  0.048921507 
    4800      344.637    10.336643   -5.6176301  0.046392115    -4.336533  0.042691183 
    4900    339.58294   -9.1066723   -5.6181959  0.044647106   -4.3375966  0.043095451 
    5000     298.8654   -15.967761   -5.6236986  0.037856121   -4.3412938  0.039319331 
Loop time of 12.4325 on 4 procs for 5000 steps with 1220 atoms

Performance: 3.475 ns/day, 6.907 hours/ns, 402.172 timesteps/s
99.6% CPU use with 4 MPI tasks x 1 OpenMP threads

MPI task timing breakdown:
Section |  min time  |  avg time  |  max time  |%varavg| %total
---------------------------------------------------------------
Pair    | 2.4664     | 6.9959     | 12.076     | 136.3 | 56.27
Neigh   | 0.0086486  | 0.01123    | 0.014111   |   2.1 |  0.09
Comm    | 0.16737    | 5.2547     | 9.7926     | 157.5 | 42.27
Output  | 0.061768   | 0.061983   | 0.062472   |   0.1 |  0.50
Modify  | 0.049022   | 0.067871   | 0.089162   |   6.0 |  0.55
Other   |            | 0.04081    |            |       |  0.33

Nlocal:        305.000 ave         440 max         160 min
Histogram: 1 0 0 0 0 2 0 0 0 1
Nghost:        347.250 ave         439 max         234 min
Histogram: 1 0 0 0 1 0 0 1 0 1
Neighs:         0.00000 ave           0 max           0 min
Histogram: 4 0 0 0 0 0 0 0 0 0
FullNghs:      8041.00 ave       11006 max        4376 min
Histogram: 1 0 0 0 1 0 0 1 0 1

Total # of neighbors = 32164
Ave neighs/atom = 26.363934
Neighbor list builds = 7
Dangerous builds = 0
write_data SiC.data1_$t_dt:${dt}
write_data SiC.data1_1500_dt:${dt}
write_data SiC.data1_1500_dt:0.0001
System init for write_data ...
WARNING: More than one compute ke/atom (src/compute_ke_atom.cpp:56)
WARNING: More than one compute ke/atom (src/compute_ke_atom.cpp:56)
Neighbor list info ...
  update every 1 steps, delay 100 steps, check yes
  max neighbors/atom: 2000, page size: 100000
  master list distance cutoff = 5.55
  ghost atom cutoff = 5.55
  binsize = 2.775, bins = 54 31 49
  1 neighbor lists, perpetual/occasional/extra = 1 0 0
  (1) pair kim, perpetual
      attributes: full, newton off, ghost, cut 5.55
      pair build: full/bin/ghost
      stencil: full/ghost/bin/3d
      bin: standard
clear
OMP_NUM_THREADS environment is not set. Defaulting to 1 thread. (src/comm.cpp:98)
  using 1 OpenMP thread(s) per MPI task
next t
jump SELF loop1
print "Done!!!"
Done!!!
Total wall time: 0:07:14
