LAMMPS (24 Dec 2020)
OMP_NUM_THREADS environment is not set. Defaulting to 1 thread. (src/comm.cpp:94)
  using 1 OpenMP thread(s) per MPI task
variable lattice_spacing equal 3.80

label loop1
variable a loop 10
print "Lattice_spacing is ${lattice_spacing}"
Lattice_spacing is 3.8

units metal
boundary f f f
atom_style atomic

lattice fcc ${lattice_spacing} origin 0 0 0
lattice fcc 3.8 origin 0 0 0
Lattice spacing in x,y,z = 3.8000000 3.8000000 3.8000000
region r1 block 0 8 0 8 0 8 units lattice side in
create_box 1 r1
Created orthogonal box = (0.0000000 0.0000000 0.0000000) to (30.400000 30.400000 30.400000)
  1 by 1 by 1 MPI processor grid
#if "$a == 1" then "create_box 1 region$a"
#if "$a > 1" then "delete_atoms group 1" #"change_box 1 boundary p p f units lattice" #"reset_timestep 0"
mass 1 26.98
create_atoms 1 region r1
Created 2048 atoms
  create_atoms CPU = 0.000 seconds
group 1 type 1
2048 atoms in group 1
pair_style kim Morse_Shifted_GirifalcoWeizer_1959MedCutoff_Al__MO_279544746097_004
pair_coeff * * Al
neighbor 2.5 bin
neigh_modify every 1 delay 1
timestep 0.001
dump 1 all atom 100 dump.Al_${lattice_spacing}
dump 1 all atom 100 dump.Al_3.8
thermo 100
thermo_style custom step temp press pe ke etotal
fix 1 all nvt temp 0.0001 0.0001 0.01
run 10000
Neighbor list info ...
  update every 1 steps, delay 1 steps, check yes
  max neighbors/atom: 2000, page size: 100000
  master list distance cutoff = 12.27941
  ghost atom cutoff = 12.27941
  binsize = 6.139705, bins = 5 5 5
  1 neighbor lists, perpetual/occasional/extra = 1 0 0
  (1) pair kim, perpetual
      attributes: full, newton off, cut 12.27941
      pair build: full/bin/atomonly
      stencil: full/bin/3d
      bin: standard
Per MPI rank memory allocation (min/avg/max) = 6.926 | 6.926 | 6.926 Mbytes
Step Temp Press PotEng KinEng TotEng 
       0            0    240066.42   -4436.5949            0   -4436.5949 
     100            0    229628.05   -4486.3582            0   -4486.3582 
     200            0    221461.52   -4520.9185            0   -4520.9185 
     300            0    214783.14   -4546.7658            0   -4546.7658 
     400            0    209205.72   -4567.2066            0   -4567.2066 
     500            0    204370.19   -4584.0386            0   -4584.0386 
     600            0    199928.02   -4598.3149            0   -4598.3149 
     700            0    195996.36   -4610.6978            0   -4610.6978 
     800            0     192278.2   -4621.6264            0   -4621.6264 
     900            0    188826.52   -4631.4007            0   -4631.4007 
    1000            0    185614.66   -4640.2408            0   -4640.2408 
    1100            0    182607.73   -4648.3105            0   -4648.3105 
    1200            0    179778.19   -4655.7339            0   -4655.7339 
    1300            0    177103.92   -4662.6076            0   -4662.6076 
    1400            0    174566.85    -4669.008            0    -4669.008 
    1500            0    172152.05   -4674.9966            0   -4674.9966 
    1600            0    169846.98   -4680.6235            0   -4680.6235 
    1700            0    167643.84   -4685.9302            0   -4685.9302 
    1800            0    165531.39   -4690.9516            0   -4690.9516 
    1900            0     163504.6    -4695.717            0    -4695.717 
    2000            0    161561.54   -4700.2515            0   -4700.2515 
    2100            0    159690.42   -4704.5777            0   -4704.5777 
    2200            0    157873.58   -4708.7129            0   -4708.7129 
    2300            0    156121.92   -4712.6731            0   -4712.6731 
    2400            0    154439.48   -4716.4733            0   -4716.4733 
    2500            0    152800.24   -4720.1255            0   -4720.1255 
    2600            0    151266.25   -4723.6433            0   -4723.6433 
    2700            0    149741.88    -4727.036            0    -4727.036 
    2800            0    148234.72   -4730.3108            0   -4730.3108 
    2900            0     146769.2   -4733.4747            0   -4733.4747 
    3000            0    145419.96   -4736.5365            0   -4736.5365 
    3100            0    144044.26   -4739.5038            0   -4739.5038 
    3200            0    142688.53   -4742.3796            0   -4742.3796 
    3300            0    141362.35   -4745.1689            0   -4745.1689 
    3400            0    140076.75   -4747.8768            0   -4747.8768 
    3500            0     138800.1   -4750.5075            0   -4750.5075 
    3600            0    137566.21   -4753.0649            0   -4753.0649 
    3700            0    136340.85   -4755.5527            0   -4755.5527 
    3800            0    135156.56   -4757.9743            0   -4757.9743 
    3900            0    134027.48   -4760.3338            0   -4760.3338 
    4000            0    132892.08   -4762.6343            0   -4762.6343 
    4100            0    131774.83   -4764.8779            0   -4764.8779 
    4200            0    130681.98   -4767.0669            0   -4767.0669 
    4300            0    129604.36   -4769.2037            0   -4769.2037 
    4400            0    128540.49   -4771.2906            0   -4771.2906 
    4500            0    127493.88   -4773.3294            0   -4773.3294 
    4600            0    126475.06   -4775.3222            0   -4775.3222 
    4700            0    125465.07   -4777.2709            0   -4777.2709 
    4800            0    124475.23   -4779.1771            0   -4779.1771 
    4900            0    123503.43   -4781.0427            0   -4781.0427 
    5000            0    122547.18    -4782.869            0    -4782.869 
    5100            0    121608.71   -4784.6576            0   -4784.6576 
    5200            0    120699.43   -4786.4102            0   -4786.4102 
    5300            0    119817.31   -4788.1284            0   -4788.1284 
    5400            0    118930.99   -4789.8134            0   -4789.8134 
    5500            0    118046.53   -4791.4658            0   -4791.4658 
    5600            0       117193   -4793.0866            0   -4793.0866 
    5700            0    116362.09   -4794.6776            0   -4794.6776 
    5800            0    115533.14   -4796.2396            0   -4796.2396 
    5900            0    114719.68   -4797.7735            0   -4797.7735 
    6000            0    113934.01   -4799.2804            0   -4799.2804 
    6100            0    113141.57   -4800.7608            0   -4800.7608 
    6200            0    112345.61   -4802.2152            0   -4802.2152 
    6300            0    111566.31   -4803.6442            0   -4803.6442 
    6400            0    110800.51   -4805.0488            0   -4805.0488 
    6500            0    110040.24   -4806.4295            0   -4806.4295 
    6600            0    109292.24   -4807.7869            0   -4807.7869 
    6700            0    108547.16   -4809.1218            0   -4809.1218 
    6800            0    107817.38   -4810.4347            0   -4810.4347 
    6900            0    107099.86   -4811.7263            0   -4811.7263 
    7000            0    106388.71   -4812.9972            0   -4812.9972 
    7100            0    105676.76   -4814.2477            0   -4814.2477 
    7200            0    104983.47   -4815.4785            0   -4815.4785 
    7300            0       104303     -4816.69            0     -4816.69 
    7400            0     103618.3   -4817.8828            0   -4817.8828 
    7500            0    102950.25   -4819.0573            0   -4819.0573 
    7600            0    102286.71    -4820.214            0    -4820.214 
    7700            0    101626.16   -4821.3531            0   -4821.3531 
    7800            0    100971.94    -4822.475            0    -4822.475 
    7900            0    100332.26   -4823.5802            0   -4823.5802 
    8000            0    99700.626   -4824.6693            0   -4824.6693 
    8100            0    99075.458   -4825.7425            0   -4825.7425 
    8200            0    98461.528   -4826.8004            0   -4826.8004 
    8300            0    97864.329   -4827.8433            0   -4827.8433 
    8400            0    97258.444   -4828.8715            0   -4828.8715 
    8500            0    96664.157   -4829.8852            0   -4829.8852 
    8600            0    96071.478   -4830.8847            0   -4830.8847 
    8700            0     95492.23   -4831.8704            0   -4831.8704 
    8800            0    94910.868   -4832.8425            0   -4832.8425 
    8900            0     94342.71   -4833.8014            0   -4833.8014 
    9000            0    93776.396   -4834.7472            0   -4834.7472 
    9100            0    93223.038   -4835.6804            0   -4835.6804 
    9200            0    92672.698   -4836.6011            0   -4836.6011 
    9300            0    92123.896   -4837.5096            0   -4837.5096 
    9400            0    91576.533   -4838.4061            0   -4838.4061 
    9500            0    91034.733   -4839.2906            0   -4839.2906 
    9600            0    90501.195   -4840.1636            0   -4840.1636 
    9700            0    89968.812   -4841.0252            0   -4841.0252 
    9800            0    89458.532   -4841.8757            0   -4841.8757 
    9900            0    88940.756   -4842.7153            0   -4842.7153 
   10000            0    88428.059   -4843.5442            0   -4843.5442 
Loop time of 69.8081 on 1 procs for 10000 steps with 2048 atoms

Performance: 12.377 ns/day, 1.939 hours/ns, 143.250 timesteps/s
99.9% CPU use with 1 MPI tasks x 1 OpenMP threads

MPI task timing breakdown:
Section |  min time  |  avg time  |  max time  |%varavg| %total
---------------------------------------------------------------
Pair    | 69.326     | 69.326     | 69.326     |   0.0 | 99.31
Neigh   | 0          | 0          | 0          |   0.0 |  0.00
Comm    | 0.0016643  | 0.0016643  | 0.0016643  |   0.0 |  0.00
Output  | 0.18169    | 0.18169    | 0.18169    |   0.0 |  0.26
Modify  | 0.24382    | 0.24382    | 0.24382    |   0.0 |  0.35
Other   |            | 0.05466    |            |       |  0.08

Nlocal:        2048.00 ave        2048 max        2048 min
Histogram: 1 0 0 0 0 0 0 0 0 0
Nghost:         0.00000 ave           0 max           0 min
Histogram: 1 0 0 0 0 0 0 0 0 0
Neighs:         0.00000 ave           0 max           0 min
Histogram: 1 0 0 0 0 0 0 0 0 0
FullNghs:      692312.0 ave      692312 max      692312 min
Histogram: 1 0 0 0 0 0 0 0 0 0

Total # of neighbors = 692312
Ave neighs/atom = 338.04297
Neighbor list builds = 0
Dangerous builds = 0
unfix 1
clear
OMP_NUM_THREADS environment is not set. Defaulting to 1 thread. (src/comm.cpp:94)
  using 1 OpenMP thread(s) per MPI task
variable lattice_spacing equal ${lattice_spacing}+0.05
variable lattice_spacing equal 3.8+0.05
next a
jump SELF loop1
variable a loop 10
print "Lattice_spacing is ${lattice_spacing}"
Lattice_spacing is 3.85

units metal
boundary f f f
atom_style atomic

lattice fcc ${lattice_spacing} origin 0 0 0
lattice fcc 3.85 origin 0 0 0
Lattice spacing in x,y,z = 3.8500000 3.8500000 3.8500000
region r1 block 0 8 0 8 0 8 units lattice side in
create_box 1 r1
Created orthogonal box = (0.0000000 0.0000000 0.0000000) to (30.800000 30.800000 30.800000)
  1 by 1 by 1 MPI processor grid
#if "$a == 1" then "create_box 1 region$a"
#if "$a > 1" then "delete_atoms group 1" #"change_box 1 boundary p p f units lattice" #"reset_timestep 0"
mass 1 26.98
create_atoms 1 region r1
Created 2048 atoms
  create_atoms CPU = 0.000 seconds
group 1 type 1
2048 atoms in group 1
pair_style kim Morse_Shifted_GirifalcoWeizer_1959MedCutoff_Al__MO_279544746097_004
pair_coeff * * Al
neighbor 2.5 bin
neigh_modify every 1 delay 1
timestep 0.001
dump 1 all atom 100 dump.Al_${lattice_spacing}
dump 1 all atom 100 dump.Al_3.85
thermo 100
thermo_style custom step temp press pe ke etotal
fix 1 all nvt temp 0.0001 0.0001 0.01
run 10000
Neighbor list info ...
  update every 1 steps, delay 1 steps, check yes
  max neighbors/atom: 2000, page size: 100000
  master list distance cutoff = 12.27941
  ghost atom cutoff = 12.27941
  binsize = 6.139705, bins = 6 6 6
  1 neighbor lists, perpetual/occasional/extra = 1 0 0
  (1) pair kim, perpetual
      attributes: full, newton off, cut 12.27941
      pair build: full/bin/atomonly
      stencil: full/bin/3d
      bin: standard
Per MPI rank memory allocation (min/avg/max) = 6.927 | 6.927 | 6.927 Mbytes
Step Temp Press PotEng KinEng TotEng 
       0            0    185057.47   -4584.7107            0   -4584.7107 
     100            0    177142.52   -4621.8385            0   -4621.8385 
     200            0    170871.36   -4647.9222            0   -4647.9222 
     300            0    165675.77   -4667.4567            0   -4667.4567 
     400            0    161229.33    -4682.829            0    -4682.829 
     500            0    157331.95   -4695.3928            0   -4695.3928 
     600            0    153853.77   -4705.9639            0   -4705.9639 
     700            0    150706.26    -4715.061            0    -4715.061 
     800            0    147826.58   -4723.0302            0   -4723.0302 
     900            0    145168.53   -4730.1118            0   -4730.1118 
    1000            0    142693.13   -4736.4783            0   -4736.4783 
    1100            0     140378.7   -4742.2576            0   -4742.2576 
    1200            0    138201.14   -4747.5465            0   -4747.5465 
    1300            0    136154.68   -4752.4203            0   -4752.4203 
    1400            0    134214.37   -4756.9382            0   -4756.9382 
    1500            0    132365.14   -4761.1481            0   -4761.1481 
    1600            0    130599.94   -4765.0885            0   -4765.0885 
    1700            0    128911.84   -4768.7912            0   -4768.7912 
    1800            0    127293.74   -4772.2827            0   -4772.2827 
    1900            0    125742.16   -4775.5858            0   -4775.5858 
    2000            0    124259.47   -4778.7205            0   -4778.7205 
    2100            0    122817.14   -4781.7019            0   -4781.7019 
    2200            0    121424.68   -4784.5438            0   -4784.5438 
    2300            0     120079.8   -4787.2584            0   -4787.2584 
    2400            0    118776.56   -4789.8564            0   -4789.8564 
    2500            0    117513.46   -4792.3471            0   -4792.3471 
    2600            0    116287.92   -4794.7387            0   -4794.7387 
    2700            0     115101.6   -4797.0387            0   -4797.0387 
    2800            0    113953.58   -4799.2541            0   -4799.2541 
    2900            0    112827.85   -4801.3905            0   -4801.3905 
    3000            0    111730.91   -4803.4528            0   -4803.4528 
    3100            0    110661.82   -4805.4457            0   -4805.4457 
    3200            0    109627.14   -4807.3739            0   -4807.3739 
    3300            0    108615.87   -4809.2417            0   -4809.2417 
    3400            0    107621.65    -4811.052            0    -4811.052 
    3500            0    106651.45   -4812.8079            0   -4812.8079 
    3600            0    105702.16   -4814.5125            0   -4814.5125 
    3700            0    104773.49   -4816.1686            0   -4816.1686 
    3800            0    103867.86   -4817.7787            0   -4817.7787 
    3900            0    102986.29   -4819.3454            0   -4819.3454 
    4000            0    102114.59   -4820.8708            0   -4820.8708 
    4100            0    101263.58   -4822.3566            0   -4822.3566 
    4200            0    100445.78   -4823.8053            0   -4823.8053 
    4300            0    99649.449    -4825.219            0    -4825.219 
    4400            0     98851.21   -4826.5991            0   -4826.5991 
    4500            0    98056.958   -4827.9462            0   -4827.9462 
    4600            0    97277.018   -4829.2617            0   -4829.2617 
    4700            0    96510.871   -4830.5469            0   -4830.5469 
    4800            0    95758.694    -4831.803            0    -4831.803 
    4900            0    95020.016   -4833.0313            0   -4833.0313 
    5000            0    94293.705   -4834.2327            0   -4834.2327 
    5100            0    93578.037   -4835.4083            0   -4835.4083 
    5200            0    92873.971   -4836.5592            0   -4836.5592 
    5300            0    92181.134   -4837.6861            0   -4837.6861 
    5400            0    91500.522     -4838.79            0     -4838.79 
    5500            0    90831.735   -4839.8718            0   -4839.8718 
    5600            0    90171.813   -4840.9321            0   -4840.9321 
    5700            0    89520.439   -4841.9717            0   -4841.9717 
    5800            0    88879.367   -4842.9914            0   -4842.9914 
    5900            0    88246.962   -4843.9917            0   -4843.9917 
    6000            0    87623.644   -4844.9733            0   -4844.9733 
    6100            0     87009.16   -4845.9368            0   -4845.9368 
    6200            0    86405.954   -4846.8828            0   -4846.8828 
    6300            0    85811.068   -4847.8118            0   -4847.8118 
    6400            0     85224.25   -4848.7244            0   -4848.7244 
    6500            0    84650.678   -4849.6213            0   -4849.6213 
    6600            0    84078.002   -4850.5027            0   -4850.5027 
    6700            0    83511.502    -4851.369            0    -4851.369 
    6800            0    82952.345   -4852.2207            0   -4852.2207 
    6900            0     82400.35   -4853.0582            0   -4853.0582 
    7000            0    81855.345   -4853.8817            0   -4853.8817 
    7100            0    81317.838   -4854.6918            0   -4854.6918 
    7200            0      80786.3   -4855.4888            0   -4855.4888 
    7300            0    80261.271    -4856.273            0    -4856.273 
    7400            0    79742.602   -4857.0448            0   -4857.0448 
    7500            0    79230.148   -4857.8045            0   -4857.8045 
    7600            0    78724.437   -4858.5523            0   -4858.5523 
    7700            0    78223.994   -4859.2887            0   -4859.2887 
    7800            0    77729.365   -4860.0138            0   -4860.0138 
    7900            0    77241.765    -4860.728            0    -4860.728 
    8000            0    76758.376   -4861.4314            0   -4861.4314 
    8100            0     76280.44   -4862.1245            0   -4862.1245 
    8200            0    75807.844   -4862.8073            0   -4862.8073 
    8300            0    75340.478   -4863.4802            0   -4863.4802 
    8400            0    74878.906   -4864.1433            0   -4864.1433 
    8500            0    74421.678    -4864.797            0    -4864.797 
    8600            0    73969.373   -4865.4413            0   -4865.4413 
    8700            0    73523.242   -4866.0765            0   -4866.0765 
    8800            0    73081.152   -4866.7028            0   -4866.7028 
    8900            0    72644.373   -4867.3205            0   -4867.3205 
    9000            0    72210.791   -4867.9296            0   -4867.9296 
    9100            0    71781.681   -4868.5304            0   -4868.5304 
    9200            0    71356.962    -4869.123            0    -4869.123 
    9300            0    70936.553   -4869.7076            0   -4869.7076 
    9400            0    70521.051   -4870.2844            0   -4870.2844 
    9500            0    70109.696   -4870.8535            0   -4870.8535 
    9600            0    69704.428    -4871.415            0    -4871.415 
    9700            0    69300.436   -4871.9693            0   -4871.9693 
    9800            0    68901.733   -4872.5162            0   -4872.5162 
    9900            0     68507.56   -4873.0561            0   -4873.0561 
   10000            0    68115.166   -4873.5891            0   -4873.5891 
Loop time of 63.4093 on 1 procs for 10000 steps with 2048 atoms

Performance: 13.626 ns/day, 1.761 hours/ns, 157.706 timesteps/s
99.9% CPU use with 1 MPI tasks x 1 OpenMP threads

MPI task timing breakdown:
Section |  min time  |  avg time  |  max time  |%varavg| %total
---------------------------------------------------------------
Pair    | 62.91      | 62.91      | 62.91      |   0.0 | 99.21
Neigh   | 0          | 0          | 0          |   0.0 |  0.00
Comm    | 0.0018132  | 0.0018132  | 0.0018132  |   0.0 |  0.00
Output  | 0.19876    | 0.19876    | 0.19876    |   0.0 |  0.31
Modify  | 0.24334    | 0.24334    | 0.24334    |   0.0 |  0.38
Other   |            | 0.05569    |            |       |  0.09

Nlocal:        2048.00 ave        2048 max        2048 min
Histogram: 1 0 0 0 0 0 0 0 0 0
Nghost:         0.00000 ave           0 max           0 min
Histogram: 1 0 0 0 0 0 0 0 0 0
Neighs:         0.00000 ave           0 max           0 min
Histogram: 1 0 0 0 0 0 0 0 0 0
FullNghs:      692312.0 ave      692312 max      692312 min
Histogram: 1 0 0 0 0 0 0 0 0 0

Total # of neighbors = 692312
Ave neighs/atom = 338.04297
Neighbor list builds = 0
Dangerous builds = 0
unfix 1
clear
OMP_NUM_THREADS environment is not set. Defaulting to 1 thread. (src/comm.cpp:94)
  using 1 OpenMP thread(s) per MPI task
variable lattice_spacing equal ${lattice_spacing}+0.05
variable lattice_spacing equal 3.85+0.05
next a
jump SELF loop1
variable a loop 10
print "Lattice_spacing is ${lattice_spacing}"
Lattice_spacing is 3.9

units metal
boundary f f f
atom_style atomic

lattice fcc ${lattice_spacing} origin 0 0 0
lattice fcc 3.9 origin 0 0 0
Lattice spacing in x,y,z = 3.9000000 3.9000000 3.9000000
region r1 block 0 8 0 8 0 8 units lattice side in
create_box 1 r1
Created orthogonal box = (0.0000000 0.0000000 0.0000000) to (31.200000 31.200000 31.200000)
  1 by 1 by 1 MPI processor grid
#if "$a == 1" then "create_box 1 region$a"
#if "$a > 1" then "delete_atoms group 1" #"change_box 1 boundary p p f units lattice" #"reset_timestep 0"
mass 1 26.98
create_atoms 1 region r1
Created 2048 atoms
  create_atoms CPU = 0.000 seconds
group 1 type 1
2048 atoms in group 1
pair_style kim Morse_Shifted_GirifalcoWeizer_1959MedCutoff_Al__MO_279544746097_004
pair_coeff * * Al
neighbor 2.5 bin
neigh_modify every 1 delay 1
timestep 0.001
dump 1 all atom 100 dump.Al_${lattice_spacing}
dump 1 all atom 100 dump.Al_3.9
thermo 100
thermo_style custom step temp press pe ke etotal
fix 1 all nvt temp 0.0001 0.0001 0.01
run 10000
Neighbor list info ...
  update every 1 steps, delay 1 steps, check yes
  max neighbors/atom: 2000, page size: 100000
  master list distance cutoff = 12.27941
  ghost atom cutoff = 12.27941
  binsize = 6.139705, bins = 6 6 6
  1 neighbor lists, perpetual/occasional/extra = 1 0 0
  (1) pair kim, perpetual
      attributes: full, newton off, cut 12.27941
      pair build: full/bin/atomonly
      stencil: full/bin/3d
      bin: standard
Per MPI rank memory allocation (min/avg/max) = 6.545 | 6.545 | 6.545 Mbytes
Step Temp Press PotEng KinEng TotEng 
       0            0    135718.42   -4699.6042            0   -4699.6042 
     100            0    129802.18   -4726.8805            0   -4726.8805 
     200            0    125064.42   -4746.2318            0   -4746.2318 
     300            0     121119.9   -4760.7306            0   -4760.7306 
     400            0    117738.39   -4772.0833            0   -4772.0833 
     500            0    114774.59   -4781.2895            0   -4781.2895 
     600            0    112132.24   -4788.9651            0   -4788.9651 
     700            0    109744.76   -4795.5078            0   -4795.5078 
     800            0    107564.36   -4801.1849            0   -4801.1849 
     900            0    105556.28   -4806.1833            0   -4806.1833 
    1000            0    103693.56   -4810.6374            0   -4810.6374 
    1100            0    101953.38   -4814.6466            0   -4814.6466 
    1200            0    100320.42   -4818.2862            0   -4818.2862 
    1300            0    98796.384   -4821.6161            0   -4821.6161 
    1400            0    97339.437   -4824.6812            0   -4824.6812 
    1500            0    95956.255   -4827.5176            0   -4827.5176 
    1600            0    94643.031   -4830.1553            0   -4830.1553 
    1700            0    93393.056   -4832.6196            0   -4832.6196 
    1800            0    92191.884   -4834.9301            0   -4834.9301 
    1900            0    91038.713   -4837.1038            0   -4837.1038 
    2000            0    89929.379    -4839.155            0    -4839.155 
    2100            0     88861.57    -4841.096            0    -4841.096 
    2200            0    87836.585   -4842.9375            0   -4842.9375 
    2300            0    86854.008   -4844.6892            0   -4844.6892 
    2400            0    85896.397    -4846.359            0    -4846.359 
    2500            0    84969.456   -4847.9535            0   -4847.9535 
    2600            0    84087.891   -4849.4791            0   -4849.4791 
    2700            0     83245.48   -4850.9424            0   -4850.9424 
    2800            0    82412.183    -4852.348            0    -4852.348 
    2900            0     81588.23    -4853.699            0    -4853.699 
    3000            0    80782.849   -4854.9989            0   -4854.9989 
    3100            0    79998.722   -4856.2511            0   -4856.2511 
    3200            0    79235.351   -4857.4587            0   -4857.4587 
    3300            0    78490.377   -4858.6246            0   -4858.6246 
    3400            0    77764.786   -4859.7514            0   -4859.7514 
    3500            0     77056.38   -4860.8414            0   -4860.8414 
    3600            0    76363.036   -4861.8968            0   -4861.8968 
    3700            0    75685.946   -4862.9195            0   -4862.9195 
    3800            0    75023.747   -4863.9114            0   -4863.9114 
    3900            0    74375.781    -4864.874            0    -4864.874 
    4000            0     73740.79    -4865.809            0    -4865.809 
    4100            0    73119.496   -4866.7177            0   -4866.7177 
    4200            0    72511.339   -4867.6014            0   -4867.6014 
    4300            0    71915.186   -4868.4614            0   -4868.4614 
    4400            0    71330.545   -4869.2989            0   -4869.2989 
    4500            0    70755.687   -4870.1148            0   -4870.1148 
    4600            0    70192.784   -4870.9101            0   -4870.9101 
    4700            0    69650.475   -4871.6858            0   -4871.6858 
    4800            0    69106.277    -4872.443            0    -4872.443 
    4900            0     68571.64   -4873.1821            0   -4873.1821 
    5000            0    68046.232    -4873.904            0    -4873.904 
    5100            0    67529.739   -4874.6092            0   -4874.6092 
    5200            0    67021.865   -4875.2984            0   -4875.2984 
    5300            0    66522.326   -4875.9724            0   -4875.9724 
    5400            0    66030.856   -4876.6316            0   -4876.6316 
    5500            0    65547.198   -4877.2767            0   -4877.2767 
    5600            0    65071.111   -4877.9081            0   -4877.9081 
    5700            0    64604.922   -4878.5264            0   -4878.5264 
    5800            0    64143.236   -4879.1321            0   -4879.1321 
    5900            0    63688.461   -4879.7255            0   -4879.7255 
    6000            0    63240.397   -4880.3072            0   -4880.3072 
    6100            0    62798.851   -4880.8774            0   -4880.8774 
    6200            0    62364.284   -4881.4366            0   -4881.4366 
    6300            0    61936.513   -4881.9852            0   -4881.9852 
    6400            0    61514.705   -4882.5235            0   -4882.5235 
    6500            0    61098.726   -4883.0518            0   -4883.0518 
    6600            0    60689.059   -4883.5704            0   -4883.5704 
    6700            0    60284.249   -4884.0798            0   -4884.0798 
    6800            0    59886.095     -4884.58            0     -4884.58 
    6900            0    59494.441   -4885.0716            0   -4885.0716 
    7000            0     59104.01   -4885.5545            0   -4885.5545 
    7100            0    58719.223   -4886.0292            0   -4886.0292 
    7200            0    58338.662   -4886.4958            0   -4886.4958 
    7300            0    57964.152   -4886.9545            0   -4886.9545 
    7400            0    57592.984   -4887.4057            0   -4887.4057 
    7500            0    57226.356   -4887.8494            0   -4887.8494 
    7600            0    56866.748   -4888.2859            0   -4888.2859 
    7700            0     56510.15   -4888.7154            0   -4888.7154 
    7800            0     56160.36   -4889.1381            0   -4889.1381 
    7900            0    55810.804   -4889.5541            0   -4889.5541 
    8000            0    55465.304   -4889.9636            0   -4889.9636 
    8100            0    55126.354   -4890.3669            0   -4890.3669 
    8200            0    54789.979    -4890.764            0    -4890.764 
    8300            0    54457.397   -4891.1551            0   -4891.1551 
    8400            0    54129.809   -4891.5403            0   -4891.5403 
    8500            0    53809.729   -4891.9199            0   -4891.9199 
    8600            0    53494.439   -4892.2941            0   -4892.2941 
    8700            0    53179.999   -4892.6629            0   -4892.6629 
    8800            0    52865.063   -4893.0265            0   -4893.0265 
    8900            0    52553.484   -4893.3848            0   -4893.3848 
    9000            0    52243.869    -4893.738            0    -4893.738 
    9100            0     51937.49   -4894.0863            0   -4894.0863 
    9200            0    51634.286   -4894.4296            0   -4894.4296 
    9300            0    51334.197   -4894.7682            0   -4894.7682 
    9400            0    51037.167   -4895.1021            0   -4895.1021 
    9500            0    50743.785   -4895.4314            0   -4895.4314 
    9600            0    50452.702   -4895.7562            0   -4895.7562 
    9700            0     50167.09   -4896.0767            0   -4896.0767 
    9800            0    49881.698   -4896.3929            0   -4896.3929 
    9900            0    49599.102   -4896.7049            0   -4896.7049 
   10000            0     49320.55   -4897.0128            0   -4897.0128 
Loop time of 62.027 on 1 procs for 10000 steps with 2048 atoms

Performance: 13.929 ns/day, 1.723 hours/ns, 161.220 timesteps/s
99.9% CPU use with 1 MPI tasks x 1 OpenMP threads

MPI task timing breakdown:
Section |  min time  |  avg time  |  max time  |%varavg| %total
---------------------------------------------------------------
Pair    | 61.567     | 61.567     | 61.567     |   0.0 | 99.26
Neigh   | 0          | 0          | 0          |   0.0 |  0.00
Comm    | 0.0016825  | 0.0016825  | 0.0016825  |   0.0 |  0.00
Output  | 0.16057    | 0.16057    | 0.16057    |   0.0 |  0.26
Modify  | 0.2427     | 0.2427     | 0.2427     |   0.0 |  0.39
Other   |            | 0.05509    |            |       |  0.09

Nlocal:        2048.00 ave        2048 max        2048 min
Histogram: 1 0 0 0 0 0 0 0 0 0
Nghost:         0.00000 ave           0 max           0 min
Histogram: 1 0 0 0 0 0 0 0 0 0
Neighs:         0.00000 ave           0 max           0 min
Histogram: 1 0 0 0 0 0 0 0 0 0
FullNghs:      665432.0 ave      665432 max      665432 min
Histogram: 1 0 0 0 0 0 0 0 0 0

Total # of neighbors = 665432
Ave neighs/atom = 324.91797
Neighbor list builds = 0
Dangerous builds = 0
unfix 1
clear
OMP_NUM_THREADS environment is not set. Defaulting to 1 thread. (src/comm.cpp:94)
  using 1 OpenMP thread(s) per MPI task
variable lattice_spacing equal ${lattice_spacing}+0.05
variable lattice_spacing equal 3.9+0.05
next a
jump SELF loop1
variable a loop 10
print "Lattice_spacing is ${lattice_spacing}"
Lattice_spacing is 3.95

units metal
boundary f f f
atom_style atomic

lattice fcc ${lattice_spacing} origin 0 0 0
lattice fcc 3.95 origin 0 0 0
Lattice spacing in x,y,z = 3.9500000 3.9500000 3.9500000
region r1 block 0 8 0 8 0 8 units lattice side in
create_box 1 r1
Created orthogonal box = (0.0000000 0.0000000 0.0000000) to (31.600000 31.600000 31.600000)
  1 by 1 by 1 MPI processor grid
#if "$a == 1" then "create_box 1 region$a"
#if "$a > 1" then "delete_atoms group 1" #"change_box 1 boundary p p f units lattice" #"reset_timestep 0"
mass 1 26.98
create_atoms 1 region r1
Created 2048 atoms
  create_atoms CPU = 0.000 seconds
group 1 type 1
2048 atoms in group 1
pair_style kim Morse_Shifted_GirifalcoWeizer_1959MedCutoff_Al__MO_279544746097_004
pair_coeff * * Al
neighbor 2.5 bin
neigh_modify every 1 delay 1
timestep 0.001
dump 1 all atom 100 dump.Al_${lattice_spacing}
dump 1 all atom 100 dump.Al_3.95
thermo 100
thermo_style custom step temp press pe ke etotal
fix 1 all nvt temp 0.0001 0.0001 0.01
run 10000
Neighbor list info ...
  update every 1 steps, delay 1 steps, check yes
  max neighbors/atom: 2000, page size: 100000
  master list distance cutoff = 12.27941
  ghost atom cutoff = 12.27941
  binsize = 6.139705, bins = 6 6 6
  1 neighbor lists, perpetual/occasional/extra = 1 0 0
  (1) pair kim, perpetual
      attributes: full, newton off, cut 12.27941
      pair build: full/bin/atomonly
      stencil: full/bin/3d
      bin: standard
Per MPI rank memory allocation (min/avg/max) = 6.545 | 6.545 | 6.545 Mbytes
Step Temp Press PotEng KinEng TotEng 
       0            0    93751.754   -4783.8455            0   -4783.8455 
     100            0    89387.934   -4803.6166            0   -4803.6166 
     200            0    85860.786   -4817.7724            0   -4817.7724 
     300            0    82912.374   -4828.3818            0   -4828.3818 
     400            0    80383.146   -4836.6444            0   -4836.6444 
     500            0     78168.97   -4843.2869            0   -4843.2869 
     600            0     76212.19   -4848.7685            0   -4848.7685 
     700            0    74447.074   -4853.3896            0   -4853.3896 
     800            0    72833.547   -4857.3538            0   -4857.3538 
     900            0    71347.474   -4860.8036            0   -4860.8036 
    1000            0      69977.1   -4863.8427            0   -4863.8427 
    1100            0    68746.939   -4866.5499            0   -4866.5499 
    1200            0    67573.258   -4868.9842            0   -4868.9842 
    1300            0    66458.863   -4871.1886            0   -4871.1886 
    1400            0    65396.281   -4873.1973            0   -4873.1973 
    1500            0    64388.549   -4875.0382            0   -4875.0382 
    1600            0     63431.62   -4876.7342            0   -4876.7342 
    1700            0     62520.45   -4878.3041            0   -4878.3041 
    1800            0    61650.725   -4879.7631            0   -4879.7631 
    1900            0    60818.725   -4881.1243            0   -4881.1243 
    2000            0    60021.216   -4882.3986            0   -4882.3986 
    2100            0    59255.373   -4883.5952            0   -4883.5952 
    2200            0    58518.709   -4884.7221            0   -4884.7221 
    2300            0    57811.503    -4885.786            0    -4885.786 
    2400            0    57131.781    -4886.793            0    -4886.793 
    2500            0    56477.758   -4887.7483            0   -4887.7483 
    2600            0    55846.558   -4888.6565            0   -4888.6565 
    2700            0    55229.334   -4889.5215            0   -4889.5215 
    2800            0    54634.857   -4890.3467            0   -4890.3467 
    2900            0    54059.408   -4891.1352            0   -4891.1352 
    3000            0    53503.217   -4891.8899            0   -4891.8899 
    3100            0    52959.092    -4892.613            0    -4892.613 
    3200            0     52432.39    -4893.307            0    -4893.307 
    3300            0    51914.837   -4893.9737            0   -4893.9737 
    3400            0    51411.971    -4894.615            0    -4894.615 
    3500            0     50918.12   -4895.2325            0   -4895.2325 
    3600            0    50437.679   -4895.8276            0   -4895.8276 
    3700            0    49968.784   -4896.4017            0   -4896.4017 
    3800            0    49514.648   -4896.9562            0   -4896.9562 
    3900            0    49072.211   -4897.4922            0   -4897.4922 
    4000            0    48637.282   -4898.0107            0   -4898.0107 
    4100            0    48214.427   -4898.5128            0   -4898.5128 
    4200            0    47797.003   -4898.9992            0   -4898.9992 
    4300            0    47394.585    -4899.471            0    -4899.471 
    4400            0     46991.85   -4899.9287            0   -4899.9287 
    4500            0    46602.213   -4900.3731            0   -4900.3731 
    4600            0    46219.113   -4900.8048            0   -4900.8048 
    4700            0    45839.753   -4901.2245            0   -4901.2245 
    4800            0    45472.611   -4901.6327            0   -4901.6327 
    4900            0    45108.665   -4902.0299            0   -4902.0299 
    5000            0    44752.036   -4902.4167            0   -4902.4167 
    5100            0    44398.749   -4902.7935            0   -4902.7935 
    5200            0    44051.735   -4903.1607            0   -4903.1607 
    5300            0    43712.637   -4903.5187            0   -4903.5187 
    5400            0    43378.745   -4903.8679            0   -4903.8679 
    5500            0    43051.747   -4904.2086            0   -4904.2086 
    5600            0    42727.726   -4904.5413            0   -4904.5413 
    5700            0    42409.011   -4904.8662            0   -4904.8662 
    5800            0    42095.436   -4905.1836            0   -4905.1836 
    5900            0    41788.085   -4905.4938            0   -4905.4938 
    6000            0     41493.03   -4905.7972            0   -4905.7972 
    6100            0    41196.359   -4906.0941            0   -4906.0941 
    6200            0    40901.726   -4906.3845            0   -4906.3845 
    6300            0    40612.752   -4906.6687            0   -4906.6687 
    6400            0    40326.806    -4906.947            0    -4906.947 
    6500            0    40045.029   -4907.2195            0   -4907.2195 
    6600            0    39767.307   -4907.4864            0   -4907.4864 
    6700            0     39493.53   -4907.7479            0   -4907.7479 
    6800            0    39223.593   -4908.0041            0   -4908.0041 
    6900            0    38957.397   -4908.2554            0   -4908.2554 
    7000            0    38694.843   -4908.5017            0   -4908.5017 
    7100            0    38437.084   -4908.7434            0   -4908.7434 
    7200            0    38182.153   -4908.9805            0   -4908.9805 
    7300            0    37929.969   -4909.2131            0   -4909.2131 
    7400            0    37681.077   -4909.4415            0   -4909.4415 
    7500            0    37435.395   -4909.6657            0   -4909.6657 
    7600            0    37197.833   -4909.8859            0   -4909.8859 
    7700            0    36963.298   -4910.1022            0   -4910.1022 
    7800            0    36727.981   -4910.3148            0   -4910.3148 
    7900            0    36494.326   -4910.5238            0   -4910.5238 
    8000            0    36264.767   -4910.7291            0   -4910.7291 
    8100            0    36037.981   -4910.9309            0   -4910.9309 
    8200            0    35814.514   -4911.1294            0   -4911.1294 
    8300            0    35593.075   -4911.3246            0   -4911.3246 
    8400            0    35376.732   -4911.5165            0   -4911.5165 
    8500            0    35165.416   -4911.7054            0   -4911.7054 
    8600            0    34952.812   -4911.8913            0   -4911.8913 
    8700            0    34741.395   -4912.0743            0   -4912.0743 
    8800            0     34534.85   -4912.2544            0   -4912.2544 
    8900            0    34329.985   -4912.4317            0   -4912.4317 
    9000            0    34128.019   -4912.6063            0   -4912.6063 
    9100            0    33932.019   -4912.7784            0   -4912.7784 
    9200            0    33738.815   -4912.9478            0   -4912.9478 
    9300            0    33547.106   -4913.1148            0   -4913.1148 
    9400            0    33353.112   -4913.2794            0   -4913.2794 
    9500            0    33158.057   -4913.4415            0   -4913.4415 
    9600            0    32966.281   -4913.6012            0   -4913.6012 
    9700            0     32779.59   -4913.7587            0   -4913.7587 
    9800            0    32591.711   -4913.9138            0   -4913.9138 
    9900            0    32407.003   -4914.0668            0   -4914.0668 
   10000            0    32221.679   -4914.2176            0   -4914.2176 
Loop time of 61.5903 on 1 procs for 10000 steps with 2048 atoms

Performance: 14.028 ns/day, 1.711 hours/ns, 162.363 timesteps/s
99.7% CPU use with 1 MPI tasks x 1 OpenMP threads

MPI task timing breakdown:
Section |  min time  |  avg time  |  max time  |%varavg| %total
---------------------------------------------------------------
Pair    | 61.063     | 61.063     | 61.063     |   0.0 | 99.14
Neigh   | 0          | 0          | 0          |   0.0 |  0.00
Comm    | 0.0016611  | 0.0016611  | 0.0016611  |   0.0 |  0.00
Output  | 0.23454    | 0.23454    | 0.23454    |   0.0 |  0.38
Modify  | 0.23738    | 0.23738    | 0.23738    |   0.0 |  0.39
Other   |            | 0.05403    |            |       |  0.09

Nlocal:        2048.00 ave        2048 max        2048 min
Histogram: 1 0 0 0 0 0 0 0 0 0
Nghost:         0.00000 ave           0 max           0 min
Histogram: 1 0 0 0 0 0 0 0 0 0
Neighs:         0.00000 ave           0 max           0 min
Histogram: 1 0 0 0 0 0 0 0 0 0
FullNghs:      665432.0 ave      665432 max      665432 min
Histogram: 1 0 0 0 0 0 0 0 0 0

Total # of neighbors = 665432
Ave neighs/atom = 324.91797
Neighbor list builds = 0
Dangerous builds = 0
unfix 1
clear
OMP_NUM_THREADS environment is not set. Defaulting to 1 thread. (src/comm.cpp:94)
  using 1 OpenMP thread(s) per MPI task
variable lattice_spacing equal ${lattice_spacing}+0.05
variable lattice_spacing equal 3.95+0.05
next a
jump SELF loop1
variable a loop 10
print "Lattice_spacing is ${lattice_spacing}"
Lattice_spacing is 4

units metal
boundary f f f
atom_style atomic

lattice fcc ${lattice_spacing} origin 0 0 0
lattice fcc 4 origin 0 0 0
Lattice spacing in x,y,z = 4.0000000 4.0000000 4.0000000
region r1 block 0 8 0 8 0 8 units lattice side in
create_box 1 r1
Created orthogonal box = (0.0000000 0.0000000 0.0000000) to (32.000000 32.000000 32.000000)
  1 by 1 by 1 MPI processor grid
#if "$a == 1" then "create_box 1 region$a"
#if "$a > 1" then "delete_atoms group 1" #"change_box 1 boundary p p f units lattice" #"reset_timestep 0"
mass 1 26.98
create_atoms 1 region r1
Created 2048 atoms
  create_atoms CPU = 0.000 seconds
group 1 type 1
2048 atoms in group 1
pair_style kim Morse_Shifted_GirifalcoWeizer_1959MedCutoff_Al__MO_279544746097_004
pair_coeff * * Al
neighbor 2.5 bin
neigh_modify every 1 delay 1
timestep 0.001
dump 1 all atom 100 dump.Al_${lattice_spacing}
dump 1 all atom 100 dump.Al_4
thermo 100
thermo_style custom step temp press pe ke etotal
fix 1 all nvt temp 0.0001 0.0001 0.01
run 10000
Neighbor list info ...
  update every 1 steps, delay 1 steps, check yes
  max neighbors/atom: 2000, page size: 100000
  master list distance cutoff = 12.27941
  ghost atom cutoff = 12.27941
  binsize = 6.139705, bins = 6 6 6
  1 neighbor lists, perpetual/occasional/extra = 1 0 0
  (1) pair kim, perpetual
      attributes: full, newton off, cut 12.27941
      pair build: full/bin/atomonly
      stencil: full/bin/3d
      bin: standard
Per MPI rank memory allocation (min/avg/max) = 6.545 | 6.545 | 6.545 Mbytes
Step Temp Press PotEng KinEng TotEng 
       0            0    58870.916   -4841.0315            0   -4841.0315 
     100            0    55700.367   -4855.1811            0   -4855.1811 
     200            0    53090.236   -4865.4084            0   -4865.4084 
     300            0    50856.221    -4873.085            0    -4873.085 
     400            0    48979.762   -4879.0369            0   -4879.0369 
     500            0     47340.08   -4883.7807            0   -4883.7807 
     600            0    45876.683   -4887.6516            0   -4887.6516 
     700            0     44565.34   -4890.8732            0   -4890.8732 
     800            0    43360.044   -4893.5998            0   -4893.5998 
     900            0    42276.799   -4895.9405            0   -4895.9405 
    1000            0     41282.08   -4897.9738            0   -4897.9738 
    1100            0    40354.049   -4899.7587            0   -4899.7587 
    1200            0    39500.406   -4901.3395            0   -4901.3395 
    1300            0     38698.78   -4902.7507            0   -4902.7507 
    1400            0    37951.682   -4904.0193            0   -4904.0193 
    1500            0    37235.008   -4905.1667            0   -4905.1667 
    1600            0     36563.45   -4906.2104            0   -4906.2104 
    1700            0    35928.342   -4907.1643            0   -4907.1643 
    1800            0    35323.951   -4908.0399            0   -4908.0399 
    1900            0    34737.176   -4908.8471            0   -4908.8471 
    2000            0    34192.018    -4909.594            0    -4909.594 
    2100            0    33663.433   -4910.2872            0   -4910.2872 
    2200            0    33155.523   -4910.9327            0   -4910.9327 
    2300            0    32669.004   -4911.5355            0   -4911.5355 
    2400            0    32207.795   -4912.0999            0   -4912.0999 
    2500            0    31770.521   -4912.6297            0   -4912.6297 
    2600            0    31351.138   -4913.1283            0   -4913.1283 
    2700            0    30944.949   -4913.5984            0   -4913.5984 
    2800            0    30543.767   -4914.0427            0   -4914.0427 
    2900            0     30165.97   -4914.4632            0   -4914.4632 
    3000            0    29792.118   -4914.8619            0   -4914.8619 
    3100            0    29437.717   -4915.2405            0   -4915.2405 
    3200            0    29087.646   -4915.6006            0   -4915.6006 
    3300            0    28749.117   -4915.9438            0   -4915.9438 
    3400            0    28422.192    -4916.271            0    -4916.271 
    3500            0    28105.115   -4916.5836            0   -4916.5836 
    3600            0    27795.014   -4916.8825            0   -4916.8825 
    3700            0    27489.047   -4917.1688            0   -4917.1688 
    3800            0    27192.221   -4917.4431            0   -4917.4431 
    3900            0    26907.172   -4917.7063            0   -4917.7063 
    4000            0     26620.31    -4917.959            0    -4917.959 
    4100            0     26345.15   -4918.2019            0   -4918.2019 
    4200            0    26076.544   -4918.4356            0   -4918.4356 
    4300            0    25813.007   -4918.6607            0   -4918.6607 
    4400            0    25557.294   -4918.8776            0   -4918.8776 
    4500            0    25310.365   -4919.0868            0   -4919.0868 
    4600            0    25066.577   -4919.2886            0   -4919.2886 
    4700            0    24823.288   -4919.4836            0   -4919.4836 
    4800            0    24589.927    -4919.672            0    -4919.672 
    4900            0    24363.882   -4919.8542            0   -4919.8542 
    5000            0    24141.352   -4920.0305            0   -4920.0305 
    5100            0    23922.167   -4920.2012            0   -4920.2012 
    5200            0    23701.348   -4920.3665            0   -4920.3665 
    5300            0     23490.78   -4920.5268            0   -4920.5268 
    5400            0    23281.886   -4920.6822            0   -4920.6822 
    5500            0    23078.136    -4920.833            0    -4920.833 
    5600            0    22878.191   -4920.9794            0   -4920.9794 
    5700            0    22680.725   -4921.1215            0   -4921.1215 
    5800            0    22489.228   -4921.2596            0   -4921.2596 
    5900            0    22300.575   -4921.3938            0   -4921.3938 
    6000            0    22114.657   -4921.5243            0   -4921.5243 
    6100            0    21931.971   -4921.6512            0   -4921.6512 
    6200            0    21752.418   -4921.7747            0   -4921.7747 
    6300            0    21575.903    -4921.895            0    -4921.895 
    6400            0     21401.13   -4922.0121            0   -4922.0121 
    6500            0     21230.42   -4922.1262            0   -4922.1262 
    6600            0    21062.486   -4922.2374            0   -4922.2374 
    6700            0    20897.248   -4922.3458            0   -4922.3458 
    6800            0    20734.631   -4922.4515            0   -4922.4515 
    6900            0    20574.559   -4922.5546            0   -4922.5546 
    7000            0    20416.964   -4922.6553            0   -4922.6553 
    7100            0    20268.381   -4922.7536            0   -4922.7536 
    7200            0    20115.495   -4922.8496            0   -4922.8496 
    7300            0    19967.296   -4922.9434            0   -4922.9434 
    7400            0    19820.712    -4923.035            0    -4923.035 
    7500            0     19676.89   -4923.1246            0   -4923.1246 
    7600            0    19536.976   -4923.2122            0   -4923.2122 
    7700            0    19397.907   -4923.2979            0   -4923.2979 
    7800            0    19262.612   -4923.3818            0   -4923.3818 
    7900            0    19125.655   -4923.4639            0   -4923.4639 
    8000            0    18990.603   -4923.5442            0   -4923.5442 
    8100            0    18862.223   -4923.6228            0   -4923.6228 
    8200            0    18733.834   -4923.6998            0   -4923.6998 
    8300            0     18610.21   -4923.7753            0   -4923.7753 
    8400            0     18484.67   -4923.8493            0   -4923.8493 
    8500            0    18361.415   -4923.9218            0   -4923.9218 
    8600            0    18240.406   -4923.9929            0   -4923.9929 
    8700            0     18118.59   -4924.0627            0   -4924.0627 
    8800            0    18001.334    -4924.131            0    -4924.131 
    8900            0    17882.006   -4924.1981            0   -4924.1981 
    9000            0    17764.754   -4924.2639            0   -4924.2639 
    9100            0    17646.546   -4924.3285            0   -4924.3285 
    9200            0    17531.589   -4924.3919            0   -4924.3919 
    9300            0    17416.242   -4924.4541            0   -4924.4541 
    9400            0    17302.282   -4924.5151            0   -4924.5151 
    9500            0    17191.484    -4924.575            0    -4924.575 
    9600            0    17082.615   -4924.6338            0   -4924.6338 
    9700            0    16973.843   -4924.6916            0   -4924.6916 
    9800            0    16866.345   -4924.7484            0   -4924.7484 
    9900            0      16761.3   -4924.8042            0   -4924.8042 
   10000            0    16655.072    -4924.859            0    -4924.859 
Loop time of 58.7444 on 1 procs for 10000 steps with 2048 atoms

Performance: 14.708 ns/day, 1.632 hours/ns, 170.229 timesteps/s
99.8% CPU use with 1 MPI tasks x 1 OpenMP threads

MPI task timing breakdown:
Section |  min time  |  avg time  |  max time  |%varavg| %total
---------------------------------------------------------------
Pair    | 58.274     | 58.274     | 58.274     |   0.0 | 99.20
Neigh   | 0          | 0          | 0          |   0.0 |  0.00
Comm    | 0.0016187  | 0.0016187  | 0.0016187  |   0.0 |  0.00
Output  | 0.17378    | 0.17378    | 0.17378    |   0.0 |  0.30
Modify  | 0.24049    | 0.24049    | 0.24049    |   0.0 |  0.41
Other   |            | 0.05436    |            |       |  0.09

Nlocal:        2048.00 ave        2048 max        2048 min
Histogram: 1 0 0 0 0 0 0 0 0 0
Nghost:         0.00000 ave           0 max           0 min
Histogram: 1 0 0 0 0 0 0 0 0 0
Neighs:         0.00000 ave           0 max           0 min
Histogram: 1 0 0 0 0 0 0 0 0 0
FullNghs:      590384.0 ave      590384 max      590384 min
Histogram: 1 0 0 0 0 0 0 0 0 0

Total # of neighbors = 590384
Ave neighs/atom = 288.27344
Neighbor list builds = 0
Dangerous builds = 0
unfix 1
clear
OMP_NUM_THREADS environment is not set. Defaulting to 1 thread. (src/comm.cpp:94)
  using 1 OpenMP thread(s) per MPI task
variable lattice_spacing equal ${lattice_spacing}+0.05
variable lattice_spacing equal 4+0.05
next a
jump SELF loop1
variable a loop 10
print "Lattice_spacing is ${lattice_spacing}"
Lattice_spacing is 4.05

units metal
boundary f f f
atom_style atomic

lattice fcc ${lattice_spacing} origin 0 0 0
lattice fcc 4.05 origin 0 0 0
Lattice spacing in x,y,z = 4.0500000 4.0500000 4.0500000
region r1 block 0 8 0 8 0 8 units lattice side in
create_box 1 r1
Created orthogonal box = (0.0000000 0.0000000 0.0000000) to (32.400000 32.400000 32.400000)
  1 by 1 by 1 MPI processor grid
#if "$a == 1" then "create_box 1 region$a"
#if "$a > 1" then "delete_atoms group 1" #"change_box 1 boundary p p f units lattice" #"reset_timestep 0"
mass 1 26.98
create_atoms 1 region r1
Created 2048 atoms
  create_atoms CPU = 0.000 seconds
group 1 type 1
2048 atoms in group 1
pair_style kim Morse_Shifted_GirifalcoWeizer_1959MedCutoff_Al__MO_279544746097_004
pair_coeff * * Al
neighbor 2.5 bin
neigh_modify every 1 delay 1
timestep 0.001
dump 1 all atom 100 dump.Al_${lattice_spacing}
dump 1 all atom 100 dump.Al_4.05
thermo 100
thermo_style custom step temp press pe ke etotal
fix 1 all nvt temp 0.0001 0.0001 0.01
run 10000
Neighbor list info ...
  update every 1 steps, delay 1 steps, check yes
  max neighbors/atom: 2000, page size: 100000
  master list distance cutoff = 12.27941
  ghost atom cutoff = 12.27941
  binsize = 6.139705, bins = 6 6 6
  1 neighbor lists, perpetual/occasional/extra = 1 0 0
  (1) pair kim, perpetual
      attributes: full, newton off, cut 12.27941
      pair build: full/bin/atomonly
      stencil: full/bin/3d
      bin: standard
Per MPI rank memory allocation (min/avg/max) = 6.545 | 6.545 | 6.545 Mbytes
Step Temp Press PotEng KinEng TotEng 
       0            0    28728.115   -4874.6626            0   -4874.6626 
     100            0    26477.134   -4884.6617            0   -4884.6617 
     200            0     24633.83   -4891.9611            0   -4891.9611 
     300            0    23087.371   -4897.4522            0   -4897.4522 
     400            0    21763.755   -4901.6956            0   -4901.6956 
     500            0    20612.077   -4905.0537            0   -4905.0537 
     600            0    19596.305   -4907.7665            0   -4907.7665 
     700            0    18690.246   -4909.9977            0   -4909.9977 
     800            0    17874.385   -4911.8611            0   -4911.8611 
     900            0    17133.857   -4913.4383            0   -4913.4383 
    1000            0    16457.111   -4914.7888            0   -4914.7888 
    1100            0    15835.009   -4915.9568            0   -4915.9568 
    1200            0     15260.21   -4916.9759            0   -4916.9759 
    1300            0    14726.731   -4917.8721            0   -4917.8721 
    1400            0    14229.637   -4918.6657            0   -4918.6657 
    1500            0    13764.811   -4919.3727            0   -4919.3727 
    1600            0    13328.783   -4920.0062            0   -4920.0062 
    1700            0    12918.605   -4920.5766            0   -4920.5766 
    1800            0    12531.751   -4921.0926            0   -4921.0926 
    1900            0    12166.038   -4921.5612            0   -4921.5612 
    2000            0    11819.572   -4921.9885            0   -4921.9885 
    2100            0    11490.694   -4922.3795            0   -4922.3795 
    2200            0    11177.949   -4922.7384            0   -4922.7384 
    2300            0    10880.047   -4923.0689            0   -4923.0689 
    2400            0    10595.846    -4923.374            0    -4923.374 
    2500            0    10324.326   -4923.6564            0   -4923.6564 
    2600            0    10064.573   -4923.9184            0   -4923.9184 
    2700            0     9815.767   -4924.1621            0   -4924.1621 
    2800            0    9577.1667   -4924.3892            0   -4924.3892 
    2900            0    9348.1021   -4924.6013            0   -4924.6013 
    3000            0    9127.9647   -4924.7997            0   -4924.7997 
    3100            0    8916.2006   -4924.9856            0   -4924.9856 
    3200            0    8714.0112   -4925.1602            0   -4925.1602 
    3300            0    8517.4649   -4925.3245            0   -4925.3245 
    3400            0    8327.9009   -4925.4791            0   -4925.4791 
    3500            0    8144.9285    -4925.625            0    -4925.625 
    3600            0    7968.1874   -4925.7627            0   -4925.7627 
    3700            0     7797.345    -4925.893            0    -4925.893 
    3800            0    7632.0935   -4926.0163            0   -4926.0163 
    3900            0    7472.1476   -4926.1332            0   -4926.1332 
    4000            0    7317.2425   -4926.2441            0   -4926.2441 
    4100            0    7167.1317   -4926.3495            0   -4926.3495 
    4200            0    7021.5856   -4926.4497            0   -4926.4497 
    4300            0      6880.39    -4926.545            0    -4926.545 
    4400            0    6743.3449   -4926.6359            0   -4926.6359 
    4500            0    6610.2629   -4926.7226            0   -4926.7226 
    4600            0    6480.9685   -4926.8053            0   -4926.8053 
    4700            0    6355.2972   -4926.8843            0   -4926.8843 
    4800            0    6233.0942   -4926.9599            0   -4926.9599 
    4900            0    6114.2141   -4927.0322            0   -4927.0322 
    5000            0    5998.5201   -4927.1014            0   -4927.1014 
    5100            0    5885.8829   -4927.1677            0   -4927.1677 
    5200            0    5776.1809   -4927.2313            0   -4927.2313 
    5300            0    5669.2991   -4927.2924            0   -4927.2924 
    5400            0    5565.1286    -4927.351            0    -4927.351 
    5500            0    5463.5666   -4927.4073            0   -4927.4073 
    5600            0    5364.5155   -4927.4614            0   -4927.4614 
    5700            0     5267.883   -4927.5135            0   -4927.5135 
    5800            0    5174.7168   -4927.5636            0   -4927.5636 
    5900            0     5082.633   -4927.6118            0   -4927.6118 
    6000            0    4992.7188   -4927.6583            0   -4927.6583 
    6100            0    4904.8988   -4927.7032            0   -4927.7032 
    6200            0    4819.1013   -4927.7464            0   -4927.7464 
    6300            0    4736.3965   -4927.7881            0   -4927.7881 
    6400            0    4654.9884   -4927.8284            0   -4927.8284 
    6500            0    4574.8213   -4927.8673            0   -4927.8673 
    6600            0    4497.5739   -4927.9049            0   -4927.9049 
    6700            0     4422.014   -4927.9413            0   -4927.9413 
    6800            0    4349.1988   -4927.9765            0   -4927.9765 
    6900            0    4275.6674   -4928.0106            0   -4928.0106 
    7000            0     4203.697   -4928.0435            0   -4928.0435 
    7100            0    4133.2397   -4928.0754            0   -4928.0754 
    7200            0    4064.2498   -4928.1063            0   -4928.1063 
    7300            0    3996.6833   -4928.1363            0   -4928.1363 
    7400            0    3930.4982   -4928.1653            0   -4928.1653 
    7500            0    3866.2304   -4928.1934            0   -4928.1934 
    7600            0    3802.6783   -4928.2206            0   -4928.2206 
    7700            0    3740.3918   -4928.2471            0   -4928.2471 
    7800            0     3679.335   -4928.2728            0   -4928.2728 
    7900            0    3619.4737   -4928.2977            0   -4928.2977 
    8000            0    3560.7749   -4928.3219            0   -4928.3219 
    8100            0    3503.7766   -4928.3454            0   -4928.3454 
    8200            0    3447.2987   -4928.3682            0   -4928.3682 
    8300            0    3391.8918   -4928.3904            0   -4928.3904 
    8400            0    3338.0991   -4928.4119            0   -4928.4119 
    8500            0    3285.3177   -4928.4329            0   -4928.4329 
    8600            0    3232.9377   -4928.4533            0   -4928.4533 
    8700            0    3182.0939   -4928.4732            0   -4928.4732 
    8800            0    3131.6078   -4928.4925            0   -4928.4925 
    8900            0    3082.0378   -4928.5113            0   -4928.5113 
    9000            0    3033.3611   -4928.5296            0   -4928.5296 
    9100            0    2985.5553   -4928.5474            0   -4928.5474 
    9200            0    2938.5992   -4928.5648            0   -4928.5648 
    9300            0    2893.0513   -4928.5817            0   -4928.5817 
    9400            0    2847.7233   -4928.5982            0   -4928.5982 
    9500            0    2803.1853   -4928.6143            0   -4928.6143 
    9600            0    2759.4184   -4928.6299            0   -4928.6299 
    9700            0    2716.4047   -4928.6452            0   -4928.6452 
    9800            0    2674.1264   -4928.6601            0   -4928.6601 
    9900            0    2633.1419   -4928.6747            0   -4928.6747 
   10000            0    2592.2742   -4928.6889            0   -4928.6889 
Loop time of 57.6978 on 1 procs for 10000 steps with 2048 atoms

Performance: 14.975 ns/day, 1.603 hours/ns, 173.317 timesteps/s
99.8% CPU use with 1 MPI tasks x 1 OpenMP threads

MPI task timing breakdown:
Section |  min time  |  avg time  |  max time  |%varavg| %total
---------------------------------------------------------------
Pair    | 57.21      | 57.21      | 57.21      |   0.0 | 99.16
Neigh   | 0          | 0          | 0          |   0.0 |  0.00
Comm    | 0.0016819  | 0.0016819  | 0.0016819  |   0.0 |  0.00
Output  | 0.18751    | 0.18751    | 0.18751    |   0.0 |  0.32
Modify  | 0.24358    | 0.24358    | 0.24358    |   0.0 |  0.42
Other   |            | 0.0545     |            |       |  0.09

Nlocal:        2048.00 ave        2048 max        2048 min
Histogram: 1 0 0 0 0 0 0 0 0 0
Nghost:         0.00000 ave           0 max           0 min
Histogram: 1 0 0 0 0 0 0 0 0 0
Neighs:         0.00000 ave           0 max           0 min
Histogram: 1 0 0 0 0 0 0 0 0 0
FullNghs:      590384.0 ave      590384 max      590384 min
Histogram: 1 0 0 0 0 0 0 0 0 0

Total # of neighbors = 590384
Ave neighs/atom = 288.27344
Neighbor list builds = 0
Dangerous builds = 0
unfix 1
clear
OMP_NUM_THREADS environment is not set. Defaulting to 1 thread. (src/comm.cpp:94)
  using 1 OpenMP thread(s) per MPI task
variable lattice_spacing equal ${lattice_spacing}+0.05
variable lattice_spacing equal 4.05+0.05
next a
jump SELF loop1
variable a loop 10
print "Lattice_spacing is ${lattice_spacing}"
Lattice_spacing is 4.1

units metal
boundary f f f
atom_style atomic

lattice fcc ${lattice_spacing} origin 0 0 0
lattice fcc 4.1 origin 0 0 0
Lattice spacing in x,y,z = 4.1000000 4.1000000 4.1000000
region r1 block 0 8 0 8 0 8 units lattice side in
create_box 1 r1
Created orthogonal box = (0.0000000 0.0000000 0.0000000) to (32.800000 32.800000 32.800000)
  1 by 1 by 1 MPI processor grid
#if "$a == 1" then "create_box 1 region$a"
#if "$a > 1" then "delete_atoms group 1" #"change_box 1 boundary p p f units lattice" #"reset_timestep 0"
mass 1 26.98
create_atoms 1 region r1
Created 2048 atoms
  create_atoms CPU = 0.000 seconds
group 1 type 1
2048 atoms in group 1
pair_style kim Morse_Shifted_GirifalcoWeizer_1959MedCutoff_Al__MO_279544746097_004
pair_coeff * * Al
neighbor 2.5 bin
neigh_modify every 1 delay 1
timestep 0.001
dump 1 all atom 100 dump.Al_${lattice_spacing}
dump 1 all atom 100 dump.Al_4.1
thermo 100
thermo_style custom step temp press pe ke etotal
fix 1 all nvt temp 0.0001 0.0001 0.01
run 10000
Neighbor list info ...
  update every 1 steps, delay 1 steps, check yes
  max neighbors/atom: 2000, page size: 100000
  master list distance cutoff = 12.27941
  ghost atom cutoff = 12.27941
  binsize = 6.139705, bins = 6 6 6
  1 neighbor lists, perpetual/occasional/extra = 1 0 0
  (1) pair kim, perpetual
      attributes: full, newton off, cut 12.27941
      pair build: full/bin/atomonly
      stencil: full/bin/3d
      bin: standard
Per MPI rank memory allocation (min/avg/max) = 6.164 | 6.164 | 6.164 Mbytes
Step Temp Press PotEng KinEng TotEng 
       0            0    3399.3141   -4887.1113            0   -4887.1113 
     100 1.1531795e-288    1846.6791   -4894.1308 3.0512613e-289   -4894.1308 
     200            0    573.04208   -4899.3237            0   -4899.3237 
     300            0   -492.54792   -4903.2586            0   -4903.2586 
     400            0   -1399.0919   -4906.3068            0   -4906.3068 
     500            0   -2181.2596   -4908.7163            0   -4908.7163 
     600            0   -2864.1558   -4910.6555            0   -4910.6555 
     700            0   -3466.3654   -4912.2416            0   -4912.2416 
     800            0   -4001.9351   -4913.5574            0   -4913.5574 
     900            0   -4481.6866   -4914.6629            0   -4914.6629 
    1000            0   -4914.1044   -4915.6022            0   -4915.6022 
    1100            0   -5305.9466   -4916.4082            0   -4916.4082 
    1200            0   -5662.6734    -4917.106            0    -4917.106 
    1300            0   -5988.7536    -4917.715            0    -4917.715 
    1400            0   -6287.8864   -4918.2504            0   -4918.2504 
    1500            0   -6563.1659   -4918.7241            0   -4918.7241 
    1600            0   -6817.2044   -4919.1457            0   -4919.1457 
    1700            0   -7052.2258   -4919.5231            0   -4919.5231 
    1800            0   -7270.1381   -4919.8626            0   -4919.8626 
    1900            0   -7472.5895   -4920.1694            0   -4920.1694 
    2000            0   -7659.3762    -4920.448            0    -4920.448 
    2100            0   -7835.0776    -4920.702            0    -4920.702 
    2200            0   -7999.1026   -4920.9344            0   -4920.9344 
    2300            0   -8152.4244   -4921.1477            0   -4921.1477 
    2400            0   -8295.9069   -4921.3443            0   -4921.3443 
    2500            0   -8430.3198    -4921.526            0    -4921.526 
    2600            0   -8556.3521   -4921.6945            0   -4921.6945 
    2700            0   -8674.6223   -4921.8511            0   -4921.8511 
    2800            0   -8785.6878   -4921.9971            0   -4921.9971 
    2900            0   -8890.0524   -4922.1336            0   -4922.1336 
    3000            0    -8988.173   -4922.2615            0   -4922.2615 
    3100            0   -9080.4648   -4922.3816            0   -4922.3816 
    3200            0   -9167.3067   -4922.4947            0   -4922.4947 
    3300            0   -9249.0446   -4922.6015            0   -4922.6015 
    3400            0   -9325.9955   -4922.7024            0   -4922.7024 
    3500            0   -9397.8971    -4922.798            0    -4922.798 
    3600            0    -9465.576   -4922.8888            0   -4922.8888 
    3700            0   -9529.8428   -4922.9752            0   -4922.9752 
    3800            0   -9590.3553   -4923.0574            0   -4923.0574 
    3900            0   -9646.7735    -4923.136            0    -4923.136 
    4000            0   -9698.1989   -4923.2111            0   -4923.2111 
    4100            0   -9745.9557   -4923.2831            0   -4923.2831 
    4200            0   -9789.6551   -4923.3522            0   -4923.3522 
    4300            0   -9833.9308   -4923.4186            0   -4923.4186 
    4400            0   -9876.0682   -4923.4825            0   -4923.4825 
    4500            0   -9915.6395    -4923.544            0    -4923.544 
    4600            0   -9952.7734   -4923.6034            0   -4923.6034 
    4700            0   -9987.0395   -4923.6607            0   -4923.6607 
    4800            0   -10019.661   -4923.7161            0   -4923.7161 
    4900            0   -10050.183   -4923.7697            0   -4923.7697 
    5000            0   -10077.592   -4923.8217            0   -4923.8217 
    5100            0   -10103.118   -4923.8721            0   -4923.8721 
    5200            0   -10126.847   -4923.9211            0   -4923.9211 
    5300            0   -10149.411   -4923.9687            0   -4923.9687 
    5400            0   -10170.327    -4924.015            0    -4924.015 
    5500            0   -10190.217   -4924.0602            0   -4924.0602 
    5600            0   -10205.257   -4924.1042            0   -4924.1042 
    5700            0   -10221.116   -4924.1471            0   -4924.1471 
    5800            0   -10236.709    -4924.189            0    -4924.189 
    5900            0   -10250.967     -4924.23            0     -4924.23 
    6000            0   -10262.836     -4924.27            0     -4924.27 
    6100            0   -10273.505   -4924.3092            0   -4924.3092 
    6200            0   -10284.118   -4924.3476            0   -4924.3476 
    6300            0   -10293.601   -4924.3852            0   -4924.3852 
    6400            0   -10302.001   -4924.4221            0   -4924.4221 
    6500            0   -10309.359   -4924.4582            0   -4924.4582 
    6600            0   -10315.718   -4924.4937            0   -4924.4937 
    6700            0   -10321.117   -4924.5286            0   -4924.5286 
    6800            0   -10324.475   -4924.5628            0   -4924.5628 
    6900            0   -10328.079   -4924.5965            0   -4924.5965 
    7000            0   -10330.829   -4924.6296            0   -4924.6296 
    7100            0   -10332.758   -4924.6622            0   -4924.6622 
    7200            0   -10333.895   -4924.6943            0   -4924.6943 
    7300            0   -10334.271   -4924.7258            0   -4924.7258 
    7400            0   -10332.803   -4924.7569            0   -4924.7569 
    7500            0   -10330.662   -4924.7876            0   -4924.7876 
    7600            0   -10328.962   -4924.8179            0   -4924.8179 
    7700            0   -10326.605   -4924.8477            0   -4924.8477 
    7800            0   -10322.497   -4924.8771            0   -4924.8771 
    7900            0   -10318.915   -4924.9062            0   -4924.9062 
    8000            0   -10313.644   -4924.9349            0   -4924.9349 
    8100            0   -10308.927   -4924.9632            0   -4924.9632 
    8200            0   -10302.557   -4924.9912            0   -4924.9912 
    8300            0   -10296.776   -4925.0188            0   -4925.0188 
    8400            0   -10290.484   -4925.0461            0   -4925.0461 
    8500            0   -10283.698   -4925.0731            0   -4925.0731 
    8600            0   -10276.435   -4925.0998            0   -4925.0998 
    8700            0   -10267.606   -4925.1263            0   -4925.1263 
    8800            0    -10259.46   -4925.1524            0   -4925.1524 
    8900            0   -10250.884   -4925.1782            0   -4925.1782 
    9000            0   -10241.892   -4925.2038            0   -4925.2038 
    9100            0   -10232.499   -4925.2291            0   -4925.2291 
    9200            0   -10222.718   -4925.2542            0   -4925.2542 
    9300            0   -10212.563    -4925.279            0    -4925.279 
    9400            0   -10202.045   -4925.3036            0   -4925.3036 
    9500            0   -10191.178   -4925.3279            0   -4925.3279 
    9600            0   -10179.973   -4925.3521            0   -4925.3521 
    9700            0    -10168.44    -4925.376            0    -4925.376 
    9800            0   -10156.591   -4925.3996            0   -4925.3996 
    9900            0   -10144.437   -4925.4231            0   -4925.4231 
   10000            0   -10131.988   -4925.4464            0   -4925.4464 
Loop time of 57.0418 on 1 procs for 10000 steps with 2048 atoms

Performance: 15.147 ns/day, 1.584 hours/ns, 175.310 timesteps/s
99.6% CPU use with 1 MPI tasks x 1 OpenMP threads

MPI task timing breakdown:
Section |  min time  |  avg time  |  max time  |%varavg| %total
---------------------------------------------------------------
Pair    | 56.443     | 56.443     | 56.443     |   0.0 | 98.95
Neigh   | 0          | 0          | 0          |   0.0 |  0.00
Comm    | 0.0015971  | 0.0015971  | 0.0015971  |   0.0 |  0.00
Output  | 0.29869    | 0.29869    | 0.29869    |   0.0 |  0.52
Modify  | 0.24403    | 0.24403    | 0.24403    |   0.0 |  0.43
Other   |            | 0.05448    |            |       |  0.10

Nlocal:        2048.00 ave        2048 max        2048 min
Histogram: 1 0 0 0 0 0 0 0 0 0
Nghost:         0.00000 ave           0 max           0 min
Histogram: 1 0 0 0 0 0 0 0 0 0
Neighs:         0.00000 ave           0 max           0 min
Histogram: 1 0 0 0 0 0 0 0 0 0
FullNghs:      558512.0 ave      558512 max      558512 min
Histogram: 1 0 0 0 0 0 0 0 0 0

Total # of neighbors = 558512
Ave neighs/atom = 272.71094
Neighbor list builds = 0
Dangerous builds = 0
unfix 1
clear
OMP_NUM_THREADS environment is not set. Defaulting to 1 thread. (src/comm.cpp:94)
  using 1 OpenMP thread(s) per MPI task
variable lattice_spacing equal ${lattice_spacing}+0.05
variable lattice_spacing equal 4.1+0.05
next a
jump SELF loop1
variable a loop 10
print "Lattice_spacing is ${lattice_spacing}"
Lattice_spacing is 4.15

units metal
boundary f f f
atom_style atomic

lattice fcc ${lattice_spacing} origin 0 0 0
lattice fcc 4.15 origin 0 0 0
Lattice spacing in x,y,z = 4.1500000 4.1500000 4.1500000
region r1 block 0 8 0 8 0 8 units lattice side in
create_box 1 r1
Created orthogonal box = (0.0000000 0.0000000 0.0000000) to (33.200000 33.200000 33.200000)
  1 by 1 by 1 MPI processor grid
#if "$a == 1" then "create_box 1 region$a"
#if "$a > 1" then "delete_atoms group 1" #"change_box 1 boundary p p f units lattice" #"reset_timestep 0"
mass 1 26.98
create_atoms 1 region r1
Created 2048 atoms
  create_atoms CPU = 0.000 seconds
group 1 type 1
2048 atoms in group 1
pair_style kim Morse_Shifted_GirifalcoWeizer_1959MedCutoff_Al__MO_279544746097_004
pair_coeff * * Al
neighbor 2.5 bin
neigh_modify every 1 delay 1
timestep 0.001
dump 1 all atom 100 dump.Al_${lattice_spacing}
dump 1 all atom 100 dump.Al_4.15
thermo 100
thermo_style custom step temp press pe ke etotal
fix 1 all nvt temp 0.0001 0.0001 0.01
run 10000
Neighbor list info ...
  update every 1 steps, delay 1 steps, check yes
  max neighbors/atom: 2000, page size: 100000
  master list distance cutoff = 12.27941
  ghost atom cutoff = 12.27941
  binsize = 6.139705, bins = 6 6 6
  1 neighbor lists, perpetual/occasional/extra = 1 0 0
  (1) pair kim, perpetual
      attributes: full, newton off, cut 12.27941
      pair build: full/bin/atomonly
      stencil: full/bin/3d
      bin: standard
Per MPI rank memory allocation (min/avg/max) = 6.164 | 6.164 | 6.164 Mbytes
Step Temp Press PotEng KinEng TotEng 
       0            0   -17763.565   -4880.9554            0   -4880.9554 
     100 4.5472204e-204    -18791.42   -4885.9066 1.2031741e-204   -4885.9066 
     200            0   -19631.227   -4889.6444            0   -4889.6444 
     300            0   -20327.664   -4892.5237            0   -4892.5237 
     400            0   -20912.535   -4894.7849            0   -4894.7849 
     500            0   -21408.975   -4896.5931            0   -4896.5931 
     600            0   -21832.556    -4898.064            0    -4898.064 
     700            0   -22199.395   -4899.2793            0   -4899.2793 
     800            0    -22517.79   -4900.2982            0   -4900.2982 
     900            0   -22783.771   -4901.1641            0   -4901.1641 
    1000            0   -23012.846   -4901.9095            0   -4901.9095 
    1100            0   -23225.816   -4902.5578            0   -4902.5578 
    1200            0   -23412.581   -4903.1275            0   -4903.1275 
    1300            0   -23576.479   -4903.6327            0   -4903.6327 
    1400            0   -23722.884   -4904.0847            0   -4904.0847 
    1500            0    -23850.85   -4904.4923            0   -4904.4923 
    1600            0   -23962.894   -4904.8626            0   -4904.8626 
    1700            0   -24062.812   -4905.2013            0   -4905.2013 
    1800            0    -24149.33   -4905.5131            0   -4905.5131 
    1900            0   -24225.841   -4905.8017            0   -4905.8017 
    2000            0   -24291.248   -4906.0704            0   -4906.0704 
    2100            0   -24348.668   -4906.3218            0   -4906.3218 
    2200            0   -24397.823    -4906.558            0    -4906.558 
    2300            0   -24439.443    -4906.781            0    -4906.781 
    2400            0   -24474.175   -4906.9923            0   -4906.9923 
    2500            0   -24502.594   -4907.1933            0   -4907.1933 
    2600            0   -24524.139   -4907.3851            0   -4907.3851 
    2700            0   -24541.442   -4907.5687            0   -4907.5687 
    2800            0   -24553.826    -4907.745            0    -4907.745 
    2900            0   -24561.664   -4907.9147            0   -4907.9147 
    3000            0   -24565.297   -4908.0785            0   -4908.0785 
    3100            0   -24565.033   -4908.2369            0   -4908.2369 
    3200            0   -24561.153   -4908.3904            0   -4908.3904 
    3300            0   -24553.912   -4908.5395            0   -4908.5395 
    3400            0   -24543.546   -4908.6846            0   -4908.6846 
    3500            0    -24529.73   -4908.8259            0   -4908.8259 
    3600            0   -24513.741   -4908.9638            0   -4908.9638 
    3700            0   -24494.144   -4909.0986            0   -4909.0986 
    3800            0   -24473.262   -4909.2305            0   -4909.2305 
    3900            0   -24450.167   -4909.3597            0   -4909.3597 
    4000            0   -24425.001   -4909.4863            0   -4909.4863 
    4100            0   -24396.293   -4909.6107            0   -4909.6107 
    4200            0   -24364.166   -4909.7329            0   -4909.7329 
    4300            0   -24333.591   -4909.8531            0   -4909.8531 
    4400            0   -24301.417   -4909.9714            0   -4909.9714 
    4500            0   -24265.595   -4910.0879            0   -4910.0879 
    4600            0   -24230.533   -4910.2027            0   -4910.2027 
    4700            0   -24194.146   -4910.3159            0   -4910.3159 
[...]
      attributes: full, newton off, cut 12.27941
      pair build: full/bin/atomonly
      stencil: full/bin/3d
      bin: standard
Per MPI rank memory allocation (min/avg/max) = 6.164 | 6.164 | 6.164 Mbytes
Step Temp Press PotEng KinEng TotEng 
       0            0   -34753.808   -4858.8168            0   -4858.8168 
     100 8.9323215e-148   -35393.774   -4862.3898 2.3634522e-148   -4862.3898 
     200 1.524931e-261    -35909.14   -4865.1721 4.0348989e-262   -4865.1721 
     300            0   -36327.637   -4867.3808            0   -4867.3808 
     400            0   -36669.451   -4869.1672            0   -4869.1672 
     500            0   -36949.661   -4870.6385            0   -4870.6385 
     600            0   -37179.698   -4871.8716            0   -4871.8716 
     700            0   -37368.356   -4872.9223            0   -4872.9223 
     800            0   -37524.057   -4873.8316            0   -4873.8316 
     900            0   -37650.654   -4874.6298            0   -4874.6298 
    1000            0   -37755.609   -4875.3399            0   -4875.3399 
    1100            0   -37837.244   -4875.9793            0   -4875.9793 
    1200            0     -37903.1   -4876.5613            0   -4876.5613 
    1300            0   -37948.797   -4877.0961            0   -4877.0961 
    1400            0   -37984.643   -4877.5918            0   -4877.5918 
    1500            0   -38003.989    -4878.055            0    -4878.055 
    1600            0   -38021.265   -4878.4907            0   -4878.4907 
    1700            0   -38026.254   -4878.9034            0   -4878.9034 
    1800            0   -38018.425   -4879.2961            0   -4879.2961 
    1900            0   -38005.968   -4879.6716            0   -4879.6716 
    2000            0   -37988.119   -4880.0323            0   -4880.0323 
    2100            0   -37963.479   -4880.3799            0   -4880.3799 
    2200            0   -37930.049   -4880.7162            0   -4880.7162 
    2300            0   -37888.895   -4881.0422            0   -4881.0422 
    2400            0   -37846.211   -4881.3593            0   -4881.3593 
    2500            0   -37799.832   -4881.6683            0   -4881.6683 
    2600            0   -37756.898   -4881.9702            0   -4881.9702 
    2700            0   -37704.229   -4882.2657            0   -4882.2657 
    2800            0   -37647.833   -4882.5552            0   -4882.5552 
    2900            0    -37586.95   -4882.8394            0   -4882.8394 
    3000            0   -37526.507   -4883.1185            0   -4883.1185 
    3100            0   -37459.454   -4883.3931            0   -4883.3931 
    3200            0   -37391.194   -4883.6634            0   -4883.6634 
    3300            0   -37322.954   -4883.9298            0   -4883.9298 
    3400            0   -37250.222   -4884.1925            0   -4884.1925 
    3500            0   -37179.396   -4884.4518            0   -4884.4518 
    3600            0     -37104.9   -4884.7078            0   -4884.7078 
    3700            0   -37036.749   -4884.9609            0   -4884.9609 
    3800            0   -36960.506   -4885.2112            0   -4885.2112 
    3900            0   -36883.031   -4885.4588            0   -4885.4588 
    4000            0   -36804.426   -4885.7037            0   -4885.7037 
    4100            0   -36721.141   -4885.9462            0   -4885.9462 
    4200            0   -36641.582   -4886.1863            0   -4886.1863 
    4300            0   -36556.994   -4886.4241            0   -4886.4241 
    4400            0   -36473.688   -4886.6597            0   -4886.6597 
    4500            0   -36390.691   -4886.8932            0   -4886.8932 
    4600            0   -36304.423   -4887.1246            0   -4887.1246 
    4700            0    -36218.59   -4887.3541            0   -4887.3541 
    4800            0   -36131.689   -4887.5817            0   -4887.5817 
    4900            0   -36042.216   -4887.8074            0   -4887.8074 
    5000            0   -35953.341   -4888.0313            0   -4888.0313 
    5100            0   -35864.069   -4888.2534            0   -4888.2534 
    5200            0   -35777.028   -4888.4738            0   -4888.4738 
    5300            0   -35689.661   -4888.6925            0   -4888.6925 
    5400            0    -35602.02   -4888.9097            0   -4888.9097 
    5500            0   -35509.457   -4889.1253            0   -4889.1253 
    5600            0   -35419.791   -4889.3393            0   -4889.3393 
    5700            0   -35328.382   -4889.5517            0   -4889.5517 
    5800            0   -35238.899   -4889.7627            0   -4889.7627 
    5900            0   -35148.768   -4889.9722            0   -4889.9722 
    6000            0   -35059.578   -4890.1803            0   -4890.1803 
    6100            0   -34966.138   -4890.3869            0   -4890.3869 
    6200            0   -34876.282   -4890.5922            0   -4890.5922 
    6300            0   -34785.334   -4890.7961            0   -4890.7961 
    6400            0   -34694.875   -4890.9986            0   -4890.9986 
    6500            0   -34602.314   -4891.1998            0   -4891.1998 
    6600            0   -34510.786   -4891.3997            0   -4891.3997 
    6700            0   -34422.403   -4891.5982            0   -4891.5982 
    6800            0   -34328.848   -4891.7956            0   -4891.7956 
    6900            0   -34238.458   -4891.9916            0   -4891.9916 
    7000            0   -34149.149   -4892.1865            0   -4892.1865 
    7100            0   -34055.753   -4892.3801            0   -4892.3801 
    7200            0   -33963.496   -4892.5724            0   -4892.5724 
    7300            0    -33872.38   -4892.7636            0   -4892.7636 
    7400            0   -33783.975   -4892.9536            0   -4892.9536 
    7500            0   -33689.964   -4893.1425            0   -4893.1425 
    7600            0   -33601.285   -4893.3302            0   -4893.3302 
    7700            0   -33514.302   -4893.5167            0   -4893.5167 
    7800            0    -33423.81   -4893.7022            0   -4893.7022 
    7900            0   -33333.479   -4893.8866            0   -4893.8866 
    8000            0   -33241.239   -4894.0699            0   -4894.0699 
    8100            0   -33150.221    -4894.252            0    -4894.252 
    8200            0   -33060.432   -4894.4331            0   -4894.4331 
    8300            0   -32968.236   -4894.6131            0   -4894.6131 
    8400            0   -32879.876   -4894.7921            0   -4894.7921 
    8500            0   -32790.145     -4894.97            0     -4894.97 
    8600            0   -32698.017   -4895.1468            0   -4895.1468 
    8700            0   -32607.138   -4895.3226            0   -4895.3226 
    8800            0    -32518.55   -4895.4973            0   -4895.4973 
    8900            0   -32430.685   -4895.6711            0   -4895.6711 
    9000            0   -32343.029   -4895.8438            0   -4895.8438 
    9100            0    -32253.52   -4896.0156            0   -4896.0156 
    9200            0   -32164.765   -4896.1864            0   -4896.1864 
    9300            0   -32078.319   -4896.3562            0   -4896.3562 
    9400            0   -31992.629   -4896.5251            0   -4896.5251 
    9500            0   -31905.086    -4896.693            0    -4896.693 
    9600            0   -31818.807     -4896.86            0     -4896.86 
    9700            0   -31730.174    -4897.026            0    -4897.026 
    9800            0   -31642.831   -4897.1911            0   -4897.1911 
    9900            0   -31553.657   -4897.3553            0   -4897.3553 
   10000            0   -31468.896   -4897.5185            0   -4897.5185 
Loop time of 54.539 on 1 procs for 10000 steps with 2048 atoms

Performance: 15.842 ns/day, 1.515 hours/ns, 183.355 timesteps/s
99.7% CPU use with 1 MPI tasks x 1 OpenMP threads

MPI task timing breakdown:
Section |  min time  |  avg time  |  max time  |%varavg| %total
---------------------------------------------------------------
Pair    | 53.981     | 53.981     | 53.981     |   0.0 | 98.98
Neigh   | 0          | 0          | 0          |   0.0 |  0.00
Comm    | 0.0015036  | 0.0015036  | 0.0015036  |   0.0 |  0.00
Output  | 0.23356    | 0.23356    | 0.23356    |   0.0 |  0.43
Modify  | 0.26854    | 0.26854    | 0.26854    |   0.0 |  0.49
Other   |            | 0.05427    |            |       |  0.10

Nlocal:        2048.00 ave        2048 max        2048 min
Histogram: 1 0 0 0 0 0 0 0 0 0
Nghost:         0.00000 ave           0 max           0 min
Histogram: 1 0 0 0 0 0 0 0 0 0
Neighs:         0.00000 ave           0 max           0 min
Histogram: 1 0 0 0 0 0 0 0 0 0
FullNghs:      558512.0 ave      558512 max      558512 min
Histogram: 1 0 0 0 0 0 0 0 0 0

Total # of neighbors = 558512
Ave neighs/atom = 272.71094
Neighbor list builds = 0
Dangerous builds = 0
unfix 1
clear
OMP_NUM_THREADS environment is not set. Defaulting to 1 thread. (src/comm.cpp:94)
  using 1 OpenMP thread(s) per MPI task
variable lattice_spacing equal ${lattice_spacing}+0.05
variable lattice_spacing equal 4.2+0.05
next a
jump SELF loop1
variable a loop 10
print "Lattice_spacing is ${lattice_spacing}"
Lattice_spacing is 4.25

units metal
boundary f f f
atom_style atomic

lattice fcc ${lattice_spacing} origin 0 0 0
lattice fcc 4.25 origin 0 0 0
Lattice spacing in x,y,z = 4.2500000 4.2500000 4.2500000
region r1 block 0 8 0 8 0 8 units lattice side in
create_box 1 r1
Created orthogonal box = (0.0000000 0.0000000 0.0000000) to (34.000000 34.000000 34.000000)
  1 by 1 by 1 MPI processor grid
#if "$a == 1" then "create_box 1 region$a"
#if "$a > 1" then "delete_atoms group 1" #"change_box 1 boundary p p f units lattice" #"reset_timestep 0"
mass 1 26.98
create_atoms 1 region r1
Created 2048 atoms
  create_atoms CPU = 0.000 seconds
group 1 type 1
2048 atoms in group 1
pair_style kim Morse_Shifted_GirifalcoWeizer_1959MedCutoff_Al__MO_279544746097_004
pair_coeff * * Al
neighbor 2.5 bin
neigh_modify every 1 delay 1
timestep 0.001
dump 1 all atom 100 dump.Al_${lattice_spacing}
dump 1 all atom 100 dump.Al_4.25
thermo 100
thermo_style custom step temp press pe ke etotal
fix 1 all nvt temp 0.0001 0.0001 0.01
run 10000
Neighbor list info ...
  update every 1 steps, delay 1 steps, check yes
  max neighbors/atom: 2000, page size: 100000
  master list distance cutoff = 12.27941
  ghost atom cutoff = 12.27941
  binsize = 6.139705, bins = 6 6 6
  1 neighbor lists, perpetual/occasional/extra = 1 0 0
  (1) pair kim, perpetual
      attributes: full, newton off, cut 12.27941
      pair build: full/bin/atomonly
      stencil: full/bin/3d
      bin: standard
Per MPI rank memory allocation (min/avg/max) = 6.164 | 6.164 | 6.164 Mbytes
Step Temp Press PotEng KinEng TotEng 
       0            0   -49288.456    -4822.629            0    -4822.629 
     100 1.2270475e-113   -49643.462   -4825.3644 3.2467127e-114   -4825.3644 
     200 1.0017157e-204   -49917.556   -4827.5939 2.6504949e-205   -4827.5939 
     300 2.0862449e-280   -50127.634   -4829.4478 5.5201105e-281   -4829.4478 
     400            0   -50286.187   -4831.0185            0   -4831.0185 
     500            0   -50402.796   -4832.3733            0   -4832.3733 
     600            0   -50484.893   -4833.5619            0   -4833.5619 
     700            0   -50538.306   -4834.6212            0   -4834.6212 
     800            0   -50567.661   -4835.5787            0   -4835.5787 
     900            0   -50576.665   -4836.4554            0   -4836.4554 
    1000            0   -50568.323    -4837.267            0    -4837.267 
    1100            0   -50545.092   -4838.0258            0   -4838.0258 
    1200            0   -50509.003   -4838.7412            0   -4838.7412 
    1300            0   -50461.748   -4839.4205            0   -4839.4205 
    1400            0   -50404.748   -4840.0698            0   -4840.0698 
    1500            0   -50339.206   -4840.6934            0   -4840.6934 
    1600            0   -50266.149   -4841.2953            0   -4841.2953 
    1700            0   -50186.456   -4841.8783            0   -4841.8783 
    1800            0   -50100.887   -4842.4449            0   -4842.4449 
    1900            0     -50010.1   -4842.9972            0   -4842.9972 
    2000            0   -49914.672   -4843.5367            0   -4843.5367 
    2100            0   -49815.106   -4844.0649            0   -4844.0649 
    2200            0   -49711.845   -4844.5828            0   -4844.5828 
    2300            0   -49605.282   -4845.0915            0   -4845.0915 
    2400            0   -49495.763   -4845.5918            0   -4845.5918 
    2500            0   -49383.598   -4846.0844            0   -4846.0844 
    2600            0   -49269.063   -4846.5697            0   -4846.5697 
    2700            0   -49152.405   -4847.0485            0   -4847.0485 
    2800            0   -49033.845   -4847.5211            0   -4847.5211 
    2900            0   -48913.585   -4847.9878            0   -4847.9878 
    3000            0   -48791.803    -4848.449            0    -4848.449 
    3100            0   -48668.662   -4848.9051            0   -4848.9051 
    3200            0   -48544.311   -4849.3562            0   -4849.3562 
    3300            0   -48418.883   -4849.8026            0   -4849.8026 
    3400            0     -48292.5   -4850.2445            0   -4850.2445 
    3500            0   -48165.273   -4850.6821            0   -4850.6821 
    3600            0   -48037.304   -4851.1155            0   -4851.1155 
    3700            0   -47908.685   -4851.5448            0   -4851.5448 
    3800            0   -47779.501   -4851.9703            0   -4851.9703 
    3900            0   -47649.829    -4852.392            0    -4852.392 
    4000            0   -47519.742     -4852.81            0     -4852.81 
    4100            0   -47389.304   -4853.2245            0   -4853.2245 
    4200            0   -47259.578   -4853.6355            0   -4853.6355 
    4300            0   -47129.617   -4854.0431            0   -4854.0431 
    4400            0   -46998.466   -4854.4474            0   -4854.4474 
    4500            0   -46867.679   -4854.8485            0   -4854.8485 
    4600            0   -46736.295   -4855.2464            0   -4855.2464 
    4700            0   -46604.856   -4855.6413            0   -4855.6413 
    4800            0   -46474.403    -4856.033            0    -4856.033 
    4900            0   -46343.465   -4856.4218            0   -4856.4218 
    5000            0   -46212.073   -4856.8077            0   -4856.8077 
    5100            0   -46081.762   -4857.1906            0   -4857.1906 
    5200            0   -45954.567   -4857.5708            0   -4857.5708 
    5300            0   -45823.485   -4857.9483            0   -4857.9483 
    5400            0   -45692.554    -4858.323            0    -4858.323 
    5500            0   -45562.798   -4858.6949            0   -4858.6949 
    5600            0   -45433.236   -4859.0643            0   -4859.0643 
    5700            0   -45303.885    -4859.431            0    -4859.431 
    5800            0   -45174.762   -4859.7951            0   -4859.7951 
    5900            0   -45046.387   -4860.1567            0   -4860.1567 
    6000            0   -44916.765   -4860.5158            0   -4860.5158 
    6100            0   -44787.415   -4860.8724            0   -4860.8724 
    6200            0   -44659.355   -4861.2265            0   -4861.2265 
    6300            0    -44530.59   -4861.5782            0   -4861.5782 
    6400            0    -44403.64   -4861.9276            0   -4861.9276 
    6500            0   -44276.507   -4862.2745            0   -4862.2745 
    6600            0   -44150.709   -4862.6192            0   -4862.6192 
    6700            0   -44027.257   -4862.9616            0   -4862.9616 
    6800            0   -43900.637   -4863.3018            0   -4863.3018 
    6900            0   -43775.372   -4863.6397            0   -4863.6397 
    7000            0   -43650.461   -4863.9754            0   -4863.9754 
    7100            0   -43525.412    -4864.309            0    -4864.309 
    7200            0   -43399.726   -4864.6403            0   -4864.6403 
    7300            0    -43275.42   -4864.9695            0   -4864.9695 
    7400            0   -43151.992   -4865.2965            0   -4865.2965 
    7500            0   -43027.943   -4865.6215            0   -4865.6215 
    7600            0   -42903.778   -4865.9444            0   -4865.9444 
    7700            0   -42782.012   -4866.2652            0   -4866.2652 
    7800            0   -42659.134   -4866.5839            0   -4866.5839 
    7900            0   -42538.662   -4866.9007            0   -4866.9007 
    8000            0   -42417.586   -4867.2155            0   -4867.2155 
    8100            0   -42296.409   -4867.5283            0   -4867.5283 
    8200            0   -42176.139   -4867.8392            0   -4867.8392 
    8300            0   -42057.781   -4868.1482            0   -4868.1482 
    8400            0   -41936.819   -4868.4552            0   -4868.4552 
    8500            0   -41819.781   -4868.7604            0   -4868.7604 
    8600            0    -41700.14   -4869.0638            0   -4869.0638 
    8700            0   -41585.425   -4869.3652            0   -4869.3652 
    8800            0   -41467.608   -4869.6649            0   -4869.6649 
    8900            0   -41350.704   -4869.9628            0   -4869.9628 
    9000            0    -41233.71   -4870.2589            0   -4870.2589 
    9100            0   -41118.633   -4870.5532            0   -4870.5532 
    9200            0   -41002.965   -4870.8458            0   -4870.8458 
    9300            0    -40890.72   -4871.1366            0   -4871.1366 
    9400            0   -40773.868   -4871.4258            0   -4871.4258 
    9500            0   -40658.931   -4871.7132            0   -4871.7132 
    9600            0   -40543.902   -4871.9989            0   -4871.9989 
    9700            0   -40429.785   -4872.2829            0   -4872.2829 
    9800            0   -40319.089   -4872.5653            0   -4872.5653 
    9900            0   -40205.283    -4872.846            0    -4872.846 
   10000            0   -40092.883   -4873.1251            0   -4873.1251 
Loop time of 52.0169 on 1 procs for 10000 steps with 2048 atoms

Performance: 16.610 ns/day, 1.445 hours/ns, 192.245 timesteps/s
99.9% CPU use with 1 MPI tasks x 1 OpenMP threads

MPI task timing breakdown:
Section |  min time  |  avg time  |  max time  |%varavg| %total
---------------------------------------------------------------
Pair    | 51.54      | 51.54      | 51.54      |   0.0 | 99.08
Neigh   | 0          | 0          | 0          |   0.0 |  0.00
Comm    | 0.0016269  | 0.0016269  | 0.0016269  |   0.0 |  0.00
Output  | 0.14988    | 0.14988    | 0.14988    |   0.0 |  0.29
Modify  | 0.27082    | 0.27082    | 0.27082    |   0.0 |  0.52
Other   |            | 0.05433    |            |       |  0.10

Nlocal:        2048.00 ave        2048 max        2048 min
Histogram: 1 0 0 0 0 0 0 0 0 0
Nghost:         0.00000 ave           0 max           0 min
Histogram: 1 0 0 0 0 0 0 0 0 0
Neighs:         0.00000 ave           0 max           0 min
Histogram: 1 0 0 0 0 0 0 0 0 0
FullNghs:      506720.0 ave      506720 max      506720 min
Histogram: 1 0 0 0 0 0 0 0 0 0

Total # of neighbors = 506720
Ave neighs/atom = 247.42188
Neighbor list builds = 0
Dangerous builds = 0
unfix 1
clear
OMP_NUM_THREADS environment is not set. Defaulting to 1 thread. (src/comm.cpp:94)
  using 1 OpenMP thread(s) per MPI task
variable lattice_spacing equal ${lattice_spacing}+0.05
variable lattice_spacing equal 4.25+0.05
next a
jump SELF loop1
variable a delete
print "done..."
done...
Total wall time: 0:09:54
