LAMMPS (24 Dec 2020)
OMP_NUM_THREADS environment is not set. Defaulting to 1 thread. (src/comm.cpp:94)
  using 1 OpenMP thread(s) per MPI task
variable t equal 0.001
variable dt equal 0.0001
label loop1
variable b index "Morse_Shifted_GirifalcoWeizer_1959HighCutoff_Ni__MO_381861218831_004" "Morse_Shifted_GirifalcoWeizer_1959LowCutoff_Ni__MO_322509103239_004" "Morse_Shifted_GirifalcoWeizer_1959MedCutoff_Ni__MO_758825945924_004"
variable c index "HighCutoff" "LowCutoff" "MedCutoff"
units metal
boundary f f f
atom_style atomic
lattice custom 3.5238 a1 1.0 0.0 0.0 a2 0.0 1.0 0.0 a3 0.0 0.0 1.0 basis 0.25 0.25 0.25 basis 0.25 0.75 0.75 basis 0.75 0.25 0.75 basis 0.75 0.75 0.25
Lattice spacing in x,y,z = 3.5238000 3.5238000 3.5238000
region 1 sphere 20.0 20.0 20.0 5.0
region 2 block 0.0 40.0 0.0 40.0 0.0 40.0
create_box 1 2
Created orthogonal box = (0.0000000 0.0000000 0.0000000) to (140.95200 140.95200 140.95200)
  2 by 1 by 2 MPI processor grid
mass 1 58.6934
create_atoms 1 region 1
Created 2112 atoms
  create_atoms CPU = 0.001 seconds
group 1 type 1
2112 atoms in group 1
pair_style kim $b
pair_style kim Morse_Shifted_GirifalcoWeizer_1959HighCutoff_Ni__MO_381861218831_004
pair_coeff * * Ni
neighbor 2.5 bin
neigh_modify every 1 delay 1
dump 1 all atom 100 dump.Ni_$c
dump 1 all atom 100 dump.Ni_HighCutoff
compute 1 1 pe/atom
compute 2 1 ke/atom
compute ape 1 reduce ave c_1
compute ake 1 reduce ave c_2
thermo_style custom step temp press c_ape c_ake
thermo 100
variable te equal 1200
fix 1 1 nvt temp $t ${te} 0.01 fixedpoint 20.0 20.0 20.0
fix 1 1 nvt temp 0.001 ${te} 0.01 fixedpoint 20.0 20.0 20.0
fix 1 1 nvt temp 0.001 1200 0.01 fixedpoint 20.0 20.0 20.0
timestep ${dt}
timestep 0.0001
run 50000
Neighbor list info ...
  update every 1 steps, delay 1 steps, check yes
  max neighbors/atom: 2000, page size: 100000
  master list distance cutoff = 12.25476
  ghost atom cutoff = 12.25476
  binsize = 6.12738, bins = 24 24 24
  1 neighbor lists, perpetual/occasional/extra = 1 0 0
  (1) pair kim, perpetual
      attributes: full, newton off, cut 12.25476
      pair build: full/bin/atomonly
      stencil: full/bin/3d
      bin: standard
Per MPI rank memory allocation (min/avg/max) = 5.109 | 5.109 | 5.109 Mbytes
Step Temp Press c_ape c_ake 
       0            0       487.34   -3.6050352            0 
     100    21.465012    464.15025   -3.6088192 0.0027732569 
     200    33.198139    416.67712   -3.6151127 0.0042891644 
     300    30.980597    369.05086   -3.6199683 0.0040026603 
     400    26.854818    326.76532   -3.6233444 0.0034696141 
     500    24.114465    289.36705   -3.6258678 0.0031155634 
     600    22.785553     255.9388   -3.6279252 0.0029438693 
     700    22.245876    225.73587   -3.6296618 0.0028741437 
     800    22.153132    198.19331   -3.6311288 0.0028621612 
     900    22.541757    172.76242   -3.6323672 0.0029123712 
    1000    23.607965    148.81964    -3.633419 0.0030501241 
    1100     25.50207    125.87701   -3.6343163 0.0032948405 
    1200    28.096036    103.49696   -3.6350738 0.0036299781 
    1300    30.818956    81.589249   -3.6356899 0.0039817765 
    1400    33.111441    60.347892   -3.6361554 0.0042779631 
    1500     35.18493    40.133446   -3.6364672 0.0045458557 
    1600    37.669543    21.150528   -3.6366289 0.0048668651 
    1700    40.513726    3.4610618   -3.6366414 0.0052343306 
    1800     42.96407   -12.865043   -3.6364996 0.0055509124 
    1900    44.853421   -27.633769   -3.6361993 0.0057950146 
    2000    46.944747   -40.641113   -3.6357405 0.0060652117 
    2100    49.648066   -52.004518   -3.6351299 0.0064144776 
    2200    52.458705   -61.932476   -3.6343953 0.0067776092 
    2300    54.971492   -70.664759   -3.6335938 0.0071022586 
    2400    57.425199   -78.364698   -3.6327886  0.007419275 
    2500     59.95538   -85.151712   -3.6320043 0.0077461717 
    2600    62.189587   -91.071914   -3.6312079 0.0080348289 
    2700    63.999857   -96.091805    -3.630337 0.0082687138 
    2800    65.931772   -100.21488   -3.6293413 0.0085183152 
    2900    68.351643   -103.56759   -3.6281947   0.00883096 
    3000    70.850423   -106.40369   -3.6268869 0.0091537997 
    3100    72.992387   -108.96414   -3.6254198 0.0094305392 
    3200    75.035597   -111.53465   -3.6238109 0.0096945198 
    3300    77.471655   -114.39887   -3.6220962  0.010009256 
    3400     80.30832   -118.05351   -3.6203249   0.01037575 
    3500    83.210396   -122.90254    -3.618555  0.010750695 
    3600     86.07393   -129.33611    -3.616856  0.011120661 
    3700    89.171647   -137.76427   -3.6153222  0.011520883 
    3800    92.698421   -148.59135   -3.6140817  0.011976538 
    3900    96.253526   -162.17561   -3.6132845  0.012435854 
    4000    98.998361   -178.75117   -3.6130609  0.012790484 
    4100    100.66735   -197.94864   -3.6134632  0.013006115 
    4200    102.12316   -218.83896   -3.6144325  0.013194205 
    4300    104.12075   -240.40709   -3.6158228  0.013452291 
    4400    106.26214   -261.63673   -3.6174518  0.013728956 
    4500    107.93409   -281.43507   -3.6191377   0.01394497 
    4600    109.38743   -298.67432   -3.6207225   0.01413274 
    4700    111.30257   -312.34869   -3.6220893  0.014380174 
    4800    113.88613   -321.73294   -3.6231737  0.014713968 
    4900    116.71811   -326.34475   -3.6239674  0.015079857 
    5000    119.31216   -325.89234   -3.6245028  0.015415005 
    5100    121.65613   -320.12606   -3.6248226  0.015717843 
    5200    124.07742   -308.85218   -3.6249583  0.016030672 
    5300    126.64043   -291.94654   -3.6249211   0.01636181 
    5400    128.98691   -269.36188   -3.6246954  0.016664973 
    5500    130.98819   -241.27606   -3.6242477  0.016923536 
    5600    133.28289   -207.94918   -3.6235755  0.017220009 
    5700     136.5477   -170.06098    -3.622757  0.017641819 
    5800    140.20387    -128.9017   -3.6219264  0.018114191 
    5900    142.69674   -86.077061   -3.6211713  0.018436267 
    6000    143.69305   -42.883463   -3.6204674   0.01856499 
    6100     145.1229  0.078141676   -3.6197468  0.018749725 
    6200    148.68667    42.677505   -3.6190154   0.01921016 
    6300    152.98767    84.144892   -3.6183522  0.019765846 
    6400       155.08    123.49218   -3.6178029  0.020036172 
    6500    155.21441     160.1772   -3.6173337  0.020053537 
    6600    156.90009    194.39752   -3.6168947  0.020271325 
    6700    161.33145    226.24442   -3.6164743  0.020843853 
    6800     165.4833    255.02066   -3.6161259  0.021380267 
    6900    167.20515    279.59488   -3.6159879  0.021602729 
    7000    168.42118    299.31919   -3.6161887  0.021759839 
    7100    170.60878    314.36236   -3.6166487  0.022042473 
    7200    172.08878    325.57669   -3.6170536  0.022233688 
    7300     172.5792    334.05243   -3.6171199   0.02229705 
    7400    175.24193    340.62178   -3.6168416  0.022641072 
    7500    181.00143      345.352   -3.6164139  0.023385194 
    7600    185.27238    347.72776   -3.6159947  0.023936995 
    7700    184.90922    347.61828   -3.6156057  0.023890076 
    7800    184.47009    345.76203   -3.6152327  0.023833341 
    7900    189.12666    342.50341   -3.6149293  0.024434964 
    8000     195.8834     337.1416   -3.6147984  0.025307928 
    8100    197.33398    328.89019   -3.6148574  0.025495341 
    8200    193.53836    318.76879    -3.614877  0.025004952 
    8300    192.27541    308.96353   -3.6144505   0.02484178 
    8400    197.96353    300.42583    -3.613338  0.025576679 
    8500    206.26309    291.88988   -3.6117134  0.026648973 
    8600    209.64143    281.42482   -3.6099625  0.027085451 
    8700    206.98187    268.73014   -3.6081695  0.026741839 
    8800    205.35395    255.32538   -3.6061123  0.026531513 
    8900    211.70497    241.63261   -3.6038714  0.027352058 
    9000    222.39168    225.83021   -3.6019225   0.02873277 
    9100    225.00949    205.96863   -3.6004727  0.029070988 
    9200    218.52791    182.05963   -3.5993855  0.028233575 
    9300    218.91253    154.74654   -3.5987747  0.028283268 
    9400    230.36985    123.09871   -3.5987377  0.029763541 
    9500    234.75365     85.82917   -3.5988324  0.030329923 
    9600    226.19301     44.10852   -3.5986971  0.029223898 
    9700    226.11038  -0.50614024    -3.598769  0.029213222 
    9800    242.53375    -49.27223   -3.5996402  0.031335104 
    9900    251.34435   -103.79346   -3.6012716  0.032473424 
   10000    239.64529   -161.07548   -3.6032888  0.030961918 
   10100    232.79729    -215.5986    -3.605556  0.030077163 
   10200    242.45644   -265.15917   -3.6078472  0.031325116 
   10300      251.936   -309.29168   -3.6095483  0.032549865 
   10400    246.88517   -346.72267   -3.6102442  0.031897303 
   10500    242.38057   -375.48562   -3.6103003  0.031315314 
   10600    253.76483   -395.66767   -3.6103468  0.032786148 
   10700    267.18186   -409.14674    -3.610495  0.034519614 
   10800    260.70339   -416.88077   -3.6103139  0.033682602 
   10900     247.7374   -416.97542   -3.6095043   0.03200741 
   11000    253.84713    -407.7927   -3.6081664  0.032796781 
   11100    273.71756   -390.86757   -3.6064393  0.035364019 
   11200    278.88149   -370.61234   -3.6044522  0.036031193 
   11300    267.00243   -349.62135    -3.602562  0.034496432 
   11400    264.34753   -326.83677   -3.6010485  0.034153421 
   11500    278.27631   -301.46007   -3.5997313  0.035953005 
   11600    287.66971   -275.64449   -3.5983033  0.037166623 
   11700    280.21891   -251.98329   -3.5967434  0.036203987 
   11800    274.76406   -230.15378   -3.5953655  0.035499226 
   11900    287.15843   -208.90558   -3.5945676  0.037100566 
   12000    300.40531   -188.69477   -3.5942661  0.038812048 
   12100    291.64897   -169.84509    -3.593854  0.037680739 
   12200    278.89511   -150.24079    -3.593128  0.036032953 
   12300    288.02036   -127.23978   -3.5922606  0.037211925 
   12400    307.47142   -101.68987   -3.5911311  0.039724982 
   12500    307.63231   -77.366816   -3.5896366  0.039745768 
   12600    292.66098   -55.664973   -3.5878531  0.037811489 
   12700    291.77631   -34.086809   -3.5858008  0.037697191 
   12800    311.64655   -11.747916   -3.5837239  0.040264405 
   12900    328.66557    7.4513835    -3.582463  0.042463244 
   13000    322.92704    19.119111   -3.5828613  0.041721832 
   13100    308.91228    24.562649   -3.5847206   0.03991114 
   13200    309.82999    28.276978   -3.5872539  0.040029707 
   13300    322.87218      32.2654   -3.5898854  0.041714744 
   13400     326.0503    36.705157   -3.5919931  0.042125354 
   13500    316.41585    42.486648    -3.593217  0.040880594 
   13600     319.1605    50.558598   -3.5943431  0.041235198 
   13700    341.42819    59.204096   -3.5966166  0.044112161 
   13800    348.74572    65.485068   -3.6000008  0.045057578 
   13900     325.9776    71.430972    -3.602926  0.042115961 
   14000    313.65974    82.392415   -3.6047413  0.040524507 
   14100    335.45588    99.349925   -3.6061622  0.043340545 
   14200    359.95655    119.09666   -3.6071878  0.046506005 
   14300    346.24554     137.9629   -3.6073932  0.044734558 
   14400    326.71006    157.77868   -3.6073434  0.042210594 
   14500    337.09063    182.66757   -3.6071151  0.043551753 
   14600    356.45887    214.13198    -3.605492  0.046054108 
   14700    352.75466    250.02667   -3.6019522  0.045575529 
   14800    342.79337    288.38129   -3.5976025  0.044288541 
   14900    352.67568    328.33372   -3.5934337  0.045565324 
   15000    370.10717    366.98089   -3.5896005  0.047817454 
   15100    369.41315    400.37966   -3.5859123  0.047727788 
   15200    354.04037     428.5198   -3.5819349  0.045741641 
   15300    352.92898    453.92493   -3.5775902  0.045598051 
   15400    377.94433    474.13516   -3.5740608  0.048830008 
   15500    399.97257    481.17569   -3.5726338  0.051676033 
   15600    379.77049    471.42574   -3.5722877  0.049065945 
   15700    353.79401     450.1939   -3.5721655  0.045709812 
   15800    375.03967    419.66906   -3.5734196  0.048454729 
   15900    416.09593    374.50073   -3.5765948  0.053759154 
   16000    406.35536    310.96115   -3.5812081  0.052500683 
   16100    376.49238    239.40626   -3.5866425  0.048642417 
   16200    371.20134     170.8237   -3.5915301   0.04795882 
   16300    380.56738     110.0177    -3.594061  0.049168903 
   16400    388.82104     58.29711   -3.5937315  0.050235267 
   16500    395.14477    14.015094   -3.5918712  0.051052286 
   16600     402.8623   -25.484874   -3.5900202  0.052049382 
   16700    403.43866   -60.805538   -3.5882379  0.052123848 
   16800    398.37255   -90.275302   -3.5862728  0.051469312 
   16900    405.97225   -113.28293   -3.5850197  0.052451185 
   17000    416.68764   -130.89394   -3.5843235  0.053835602 
   17100    406.65657   -143.72395   -3.5826879  0.052539598 
   17200    397.51284   -152.27114   -3.5802481  0.051358239 
   17300     420.3711   -159.59999   -3.5788664  0.054311502 
   17400    446.41981   -171.18143   -3.5793335  0.057676967 
   17500    428.34608   -188.75308   -3.5807096   0.05534186 
   17600    400.91334   -205.43419    -3.582262   0.05179758 
   17700     408.2127    -214.4929    -3.583507  0.052740649 
   17800    433.50986   -214.77794   -3.5832952  0.056009015 
   17900    439.36478   -211.30707   -3.5816861  0.056765464 
   18000    430.89172   -209.22913   -3.5804749  0.055670755 
   18100    426.73179   -206.88748   -3.5796654  0.055133295 
   18200    426.94204   -199.30386   -3.5775549   0.05516046 
   18300    436.33965   -186.12877     -3.57439  0.056374621 
   18400    452.80238   -173.01348    -3.571705  0.058501588 
   18500    451.37607   -164.74759   -3.5692727   0.05831731 
   18600    435.72935   -162.13074   -3.5665993  0.056295771 
   18700    446.41743   -165.46341   -3.5652643  0.057676659 
   18800    471.20552   -176.33267   -3.5654532  0.060879255 
   18900    459.79606   -194.42128   -3.5653208  0.059405164 
   19000     443.0008   -217.00713   -3.5658733  0.057235235 
   19100    463.48855   -241.87318   -3.5688321   0.05988223 
   19200    473.58668   -266.71283   -3.5715726  0.061186897 
   19300    446.05077    -288.6891   -3.5716834  0.057629288 
   19400    449.91029   -308.75971   -3.5721479  0.058127934 
   19500    497.02308   -331.37294   -3.5752317  0.064214856 
   19600    496.25538   -358.51524   -3.5787059  0.064115671 
   19700    448.92054   -382.80225   -3.5807203  0.058000059 
   19800    443.09028   -396.03434   -3.5821297  0.057246796 
   19900    483.69713   -396.50211   -3.5826907  0.062493157 
   20000    494.81455   -386.32111   -3.5803036  0.063929517 
   20100    461.91651   -368.12951   -3.5751091  0.059679124 
   20200    464.51091   -342.86589   -3.5704413  0.060014318 
   20300    509.04151   -312.36089   -3.5677006  0.065767624 
   20400    511.43697   -279.02565   -3.5646514  0.066077116 
   20500    479.14739   -245.33705   -3.5620796  0.061905336 
   20600    505.59459   -214.67246   -3.5652376  0.065322286 
   20700    539.87649   -188.34016   -3.5728226  0.069751471 
   20800    485.18471   -158.98831    -3.576663  0.062685352 
   20900    440.81181   -115.83885   -3.5758527  0.056952419 
   21000    487.32243    -56.99189   -3.5745129  0.062961543 
   21100    546.78244    14.562475   -3.5723628  0.070643713 
   21200    514.47232    90.928876    -3.567406   0.06646928 
   21300    480.92534    166.36049   -3.5638701  0.062135045 
   21400    523.13279    241.87973   -3.5643714  0.067588203 
   21500     550.6751    316.24871   -3.5650932   0.07114664 
   21600     508.4474    382.01401   -3.5641799  0.065690867 
   21700    495.06278    436.95705   -3.5647847  0.063961587 
   21800    548.31537    479.44935   -3.5690784  0.070841766 
   21900    563.96639    503.25301   -3.5743287  0.072863861 
   22000    511.07522    507.83795   -3.5777705  0.066030378 
   22100     490.7381    502.59354   -3.5799443  0.063402844 
   22200    527.76264    493.56264   -3.5810065  0.068186375 
   22300    555.91326    482.77627    -3.579451  0.071823405 
   22400    532.32044    469.72379   -3.5754167  0.068775238 
   22500    526.95509    454.17951   -3.5729259   0.06808204 
   22600    558.95565    437.06737   -3.5728439  0.072216479 
   22700    554.83328    420.47192   -3.5714951  0.071683872 
   22800    520.63197    406.25679    -3.568145  0.067265099 
   22900    527.37748    395.25611   -3.5645235  0.068136613 
   23000    570.96128    384.14384    -3.561467  0.073767594 
   23100    584.25933     366.9975   -3.5592429  0.075485688 
   23200    545.08267    344.69846   -3.5569044  0.070424104 
   23300    531.32967    323.51697    -3.555398  0.068647231 
   23400    572.06082    305.51243   -3.5552556  0.073909653 
   23500    593.97652    286.81412   -3.5549418  0.076741138 
   23600    579.19278    259.45168   -3.5569438  0.074831095 
   23700    581.31514    222.22475   -3.5645975  0.075105302 
   23800     565.2322    189.03964   -3.5715997  0.073027403 
   23900    529.34424    172.96364   -3.5725185  0.068390717 
   24000    564.20157    166.86329   -3.5731963  0.072894246 
   24100    628.74984    158.87107   -3.5756487  0.081233815 
   24200     579.1601    147.46236   -3.5738848  0.074826872 
   24300    523.11993    138.36989   -3.5700378  0.067586541 
   24400    581.00827    129.56452   -3.5692746  0.075065654 
   24500    640.94238    114.14819   -3.5687867  0.082809078 
   24600    590.75023    87.566699   -3.5657819  0.076324305 
   24700    544.66587    55.424336   -3.5631286  0.070370255 
   24800    578.97961     23.57006   -3.5610465  0.074803553 
   24900    618.12625   -10.408805   -3.5565618  0.079861258 
   25000    607.47387   -54.006553   -3.5504648  0.078484981 
   25100    606.74572   -112.91869   -3.5480236  0.078390905 
   25200    637.27965   -187.34756   -3.5515881  0.082335857 
   25300    621.47469   -266.40914    -3.556523  0.080293872 
   25400     571.6147   -332.76092   -3.5582686  0.073852014 
   25500    576.65649   -383.54288   -3.5583228  0.074503408 
   25600    629.79195   -424.62985   -3.5572224  0.081368454 
   25700    625.75046   -458.33099   -3.5517171  0.080846298 
   25800    586.28577   -484.01804    -3.543377  0.075747501 
   25900    616.30869   -506.19722   -3.5381767  0.079626431 
   26000    670.69016   -530.74849   -3.5366839   0.08665246 
   26100    630.74434   -554.36758   -3.5334378  0.081491502 
   26200    570.12146   -569.09624   -3.5279358   0.07365909 
   26300    618.81855   -577.99831   -3.5253019  0.079950703 
   26400    701.96492   -592.46397   -3.5265857  0.090693125 
   26500    664.75253   -615.56888   -3.5281897  0.085885323 
   26600    594.73759   -632.86859    -3.529489  0.076839468 
   26700    608.29146   -634.31594   -3.5314321  0.078590613 
   26800    664.30919   -617.89878   -3.5318493  0.085828044 
   26900    664.86524   -589.26564   -3.5293634  0.085899886 
   27000     639.0363   -556.59478   -3.5279405  0.082562815 
   27100    657.01637    -522.9877   -3.5309746  0.084885821 
   27200    669.50965   -485.94912   -3.5349759  0.086499938 
   27300    631.34502   -441.67643   -3.5352165  0.081569109 
   27400    635.84801   -393.35661   -3.5357059   0.08215089 
   27500    712.72971   -350.62024   -3.5418141  0.092083925 
   27600    699.97651   -316.96443   -3.5481481  0.090436225 
   27700    613.87303   -277.95569   -3.5489791  0.079311747 
   27800    606.48147   -223.87945   -3.5473545  0.078356765 
   27900    685.92976   -158.98717   -3.5455892    0.0886214 
   28000    734.97595   -103.40412   -3.5453946  0.094958115 
   28100    699.74205   -73.590996   -3.5492574  0.090405933 
   28200    658.64133   -58.210372   -3.5556096  0.085095763 
   28300    654.88597    -41.28849    -3.560941  0.084610575 
   28400    677.21981   -20.079579    -3.564032  0.087496083 
   28500    686.14347    2.6954724   -3.5639302  0.088649011 
   28600    674.23616    25.143718   -3.5611577  0.087110599 
   28700    683.17798    47.221736   -3.5585366  0.088265873 
   28800    699.21191    71.560787   -3.5556454  0.090337439 
   28900    691.77322     99.63759   -3.5512593  0.089376368 
   29000    699.12204    128.48651   -3.5487652  0.090325828 
   29100    718.01178    156.27279   -3.5488576  0.092766363 
   29200    708.76996    182.16384   -3.5497418  0.091572329 
   29300    696.30255    205.79419   -3.5521067  0.089961553 
   29400    703.69217    230.57083   -3.5557159  0.090916283 
   29500    697.58279    262.84873   -3.5567526  0.090126959 
   29600    682.20372    305.10234   -3.5536901  0.088139999 
   29700    699.88565    355.05463   -3.5489032  0.090424486 
   29800    723.04234    410.64812    -3.542758  0.093416305 
   29900    720.69621    469.58401   -3.5356861  0.093113188 
   30000    720.56655    526.30398    -3.530166  0.093096437 
   30100    759.07968    569.11652   -3.5308974  0.098072292 
   30200    775.98428    589.07736   -3.5382832   0.10025635 
   30300    718.34268    597.88508   -3.5445367  0.092809114 
   30400    677.21483    610.58427   -3.5466638   0.08749544 
   30500    703.89004    628.23919   -3.5458711  0.090941849 
   30600    756.09865    646.05906   -3.5429122  0.097687146 
   30700    760.01351    654.69814   -3.5390683  0.098192942 
   30800    735.83303    648.06206   -3.5371023   0.09506885 
   30900    749.67419    626.17206   -3.5401875  0.096857112 
   31000    752.81774    597.02834   -3.5438163  0.097263256 
   31100    704.20655    572.37993   -3.5414289  0.090982741 
   31200    707.48494    553.92196   -3.5366411  0.091406306 
   31300    770.41916    533.42167   -3.5328784  0.099537341 
   31400    796.80959    499.26174   -3.5304494   0.10294696 
   31500    773.98379    443.26359   -3.5321916  0.099997887 
   31600    746.28017    374.50068   -3.5368403  0.096418609 
   31700    747.48426    304.66173    -3.541836  0.096574176 
   31800    779.55657    231.78881   -3.5481724   0.10071788 
   31900    783.30921    154.07775   -3.5544847   0.10120272 
   32000    735.45899    83.519894   -3.5562238  0.095020524 
   32100    724.23844     27.43584   -3.5546415   0.09357084 
   32200    793.92606   -24.778881   -3.5546198   0.10257441 
   32300    821.14666   -83.922936   -3.5545194   0.10609128 
   32400    764.60731   -146.53467   -3.5535501  0.098786456 
   32500    730.49653   -197.64782   -3.5519921  0.094379379 
   32600    757.41386   -230.54447   -3.5478348   0.09785707 
   32700    807.16577   -256.06092   -3.5433972   0.10428496 
   32800    809.55955   -279.87918   -3.5391125   0.10459424 
   32900    751.89458   -293.59376   -3.5315728  0.097143985 
   33000    748.75301   -294.70251   -3.5235902  0.096738097 
   33100    827.31749   -298.71258   -3.5212065   0.10688854 
   33200    862.74986   -316.83758   -3.5234365   0.11146637 
   33300    776.71099   -340.55412   -3.5230264   0.10035024 
   33400    734.24872   -357.38594   -3.5207422  0.094864158 
   33500      817.573   -373.02434   -3.5219419   0.10562957 
   33600     862.3717   -392.69638   -3.5227103   0.11141751 
   33700    769.61521   -407.85844   -3.5168976  0.099433471 
   33800    731.19139   -410.87765   -3.5092982  0.094469155 
   33900    812.72548   -411.87363   -3.5055923   0.10500327 
   34000      872.929   -422.34097   -3.5045752    0.1127815 
   34100    837.64167   -444.32911   -3.5046518   0.10822242 
   34200     800.0994   -472.92436   -3.5078929     0.103372 
   34300    800.73379   -495.70783   -3.5108242   0.10345396 
   34400    804.02408   -502.41017   -3.5084146   0.10387906 
   34500    812.74313   -494.09132   -3.5019815   0.10500555 
   34600    821.65573   -477.46105   -3.4937675   0.10615705 
   34700    827.69139   -458.78011   -3.4854139   0.10693685 
   34800     844.5357   -444.45051   -3.4794891   0.10911312 
   34900    859.12842   -437.56047    -3.476554   0.11099848 
   35000    862.90956   -439.89896   -3.4777214     0.111487 
   35100    856.66503    -449.9515   -3.4832156   0.11068022 
   35200    835.69271   -459.31798   -3.4885174   0.10797061 
   35300    833.04387   -464.62531   -3.4930347   0.10762839 
   35400    852.44126   -466.64515   -3.4972278   0.11013451 
   35500    863.10717   -465.72549   -3.5008585   0.11151253 
   35600    863.38203   -464.53163   -3.5057003   0.11154805 
   35700    869.84453   -464.53595   -3.5132207   0.11238299 
   35800    867.04565   -459.33384   -3.5211957   0.11202138 
   35900    833.88121   -436.52265   -3.5240931   0.10773657 
   36000    829.71157   -395.95779   -3.5235683   0.10719786 
   36100     903.0367   -350.80694   -3.5267117   0.11667139 
   36200    917.42207   -308.96972   -3.5310108   0.11852996 
   36300    831.46845   -259.45415    -3.529473   0.10742484 
   36400     801.6341   -192.95208   -3.5243253   0.10357028 
   36500    849.01552   -115.40405   -3.5184809   0.10969191 
   36600    900.09689   -44.312288   -3.5149851   0.11629157 
   36700    948.65429    5.4507464    -3.519489   0.12256513 
   36800    910.96216    38.815199    -3.526096   0.11769535 
   36900    845.47475    80.510554   -3.5266881   0.10923444 
   37000    856.15166    130.69834   -3.5268285   0.11061389 
   37100    928.27433    183.22846    -3.529426   0.11993206 
   37200     913.4255    234.26204   -3.5292521   0.11801361 
   37300    861.98256    283.96254   -3.5278924   0.11136724 
   37400    894.17422    332.89708   -3.5305625   0.11552636 
   37500    912.77568    386.91417   -3.5302869   0.11792965 
   37600    857.06267    448.81214   -3.5217624   0.11073159 
   37700    877.15263    509.38487   -3.5158861   0.11332719 
   37800    931.31731     561.2909   -3.5150426   0.12032521 
   37900    917.14804    611.29341   -3.5117926   0.11849456 
   38000    876.19527    659.50172   -3.5064554    0.1132035 
   38100    914.93323    698.37953   -3.5051585   0.11820841 
   38200    977.31441    715.42071   -3.5101943   0.12626799 
   38300    952.28017    711.46819   -3.5156564   0.12303359 
   38400    894.38627    705.62324   -3.5153894   0.11555376 
   38500    876.38658    700.41896   -3.5117598   0.11322822 
   38600    953.35264    680.47434   -3.5144515   0.12317215 
   38700    966.65904    642.53009   -3.5175183   0.12489133 
   38800    887.79272    604.92918   -3.5132402   0.11470188 
   38900    870.46504     574.9108   -3.5063194   0.11246316 
   39000     922.7433     539.1524   -3.5049153   0.11921746 
   39100    969.11716    500.43335   -3.5063829   0.12520891 
   39200     942.5854    462.25082    -3.505349   0.12178104 
   39300    932.72706    418.23689   -3.5070772   0.12050735 
   39400    956.33842    370.49644   -3.5113831   0.12355791 
   39500    934.43522    329.28865   -3.5117682   0.12072804 
   39600    946.44728    293.56602   -3.5139734   0.12227999 
   39700    1007.7567    252.51712    -3.522802    0.1302011 
   39800    995.89369    211.03653   -3.5296879   0.12866841 
   39900    925.52964    185.55182   -3.5262609   0.11957745 
   40000    897.87927    166.85232   -3.5194488   0.11600505 
   40100    918.13167    142.05761   -3.5138792   0.11862164 
   40200    935.90044    111.88911   -3.5082517   0.12091735 
   40300    942.29264    81.643389   -3.5017542   0.12174321 
   40400    938.31812    50.499974   -3.4938148   0.12122971 
   40500     1002.639   -2.9858142   -3.4954517    0.1295399 
   40600    1070.7793   -88.987901   -3.5083574   0.13834355 
   40700    1054.6509   -176.67066   -3.5188986   0.13625978 
   40800    987.09905   -241.64366   -3.5213351   0.12753215 
   40900     908.8799   -277.77823   -3.5153648   0.11742632 
   41000    899.06611   -290.25948   -3.5051125   0.11615839 
   41100    932.02723   -303.26034   -3.4979526   0.12041693 
   41200    998.91561   -326.69594   -3.4967676   0.12905884 
   41300    1038.8883   -359.39329   -3.4988317   0.13422327 
   41400    995.60879   -397.06391   -3.4999857    0.1286316 
   41500    966.57391   -431.82969   -3.5008038   0.12488033 
   41600     975.7098   -458.30334     -3.49956   0.12606067 
   41700    974.89869    -471.5565   -3.4926285   0.12595588 
   41800    977.67788   -479.22281    -3.485267   0.12631495 
   41900    1001.0427   -488.52821   -3.4814137   0.12933365 
   42000    980.89555   -489.66358   -3.4731789   0.12673067 
   42100    968.74704   -486.52782   -3.4640635   0.12516109 
   42200    1004.3615   -494.37467   -3.4611092   0.12976244 
   42300     1032.382   -509.85354   -3.4601973   0.13338267 
   42400    1008.7405   -523.17882    -3.456412   0.13032821 
   42500    987.79462   -528.60663   -3.4506325   0.12762202 
   42600    974.99809   -522.50275   -3.4419961   0.12596872 
   42700     969.0176   -512.08016   -3.4334718   0.12519605 
   42800    1031.8262   -512.77202   -3.4336457   0.13331085 
   42900     1131.023   -535.34288   -3.4463192   0.14612697 
   43000    1137.4356   -562.38085   -3.4606467   0.14695548 
   43100    1046.1592   -559.49273   -3.4617869   0.13516266 
   43200    974.14212   -535.41953   -3.4571157   0.12585813 
   43300    1064.9861   -515.05627   -3.4620102   0.13759508 
   43400    1149.7784   -512.13892    -3.475454   0.14855015 
   43500    1093.8836   -502.32977   -3.4822824    0.1413286 
   43600    1003.7193   -467.66025   -3.4793858   0.12967948 
   43700    1006.8711   -419.47571   -3.4772429   0.13008669 
   43800    1063.2116   -361.26243   -3.4762927   0.13736582 
   43900    1072.5754   -297.79976   -3.4742387    0.1385756 
   44000    1056.4827   -238.21254   -3.4733742   0.13649644 
   44100    1072.0091     -188.739   -3.4778301   0.13850244 
   44200    1073.7537    -141.5456   -3.4835647   0.13872785 
   44300    1026.4363   -79.975212   -3.4820585   0.13261449 
   44400    1022.2288   -6.1642142   -3.4770875   0.13207088 
   44500    1095.1445    54.460891   -3.4805082   0.14149151 
   44600    1111.9828    97.893845   -3.4855952     0.143667 
   44700    1077.3974    130.69201   -3.4881296    0.1391986 
   44800    1072.7412    153.48373   -3.4911421   0.13859703 
   44900    1093.8423      164.119    -3.497153   0.14132327 
   45000     1089.299    172.95874   -3.5022489   0.14073628 
   45100    1057.7393    195.40668   -3.5008339    0.1366588 
   45200    1066.2431    225.36278   -3.4984626   0.13775748 
   45300    1110.0956    249.55317   -3.5005128   0.14342318 
   45400     1105.684     268.5838   -3.5025533    0.1428532 
   45500    1054.0947    297.79484    -3.499164   0.13618792 
   45600    1013.4787    345.56952   -3.4888808   0.13094038 
   45700    1066.5683    385.16517   -3.4879988   0.13779949 
   45800    1116.5682    418.86674   -3.4882299   0.14425944 
   45900    1125.8621    444.44015   -3.4888125   0.14546019 
   46000    1065.6648    466.35229   -3.4849973   0.13768276 
   46100    1060.3272    488.09227   -3.4799762   0.13699315 
   46200      1124.78    493.50252   -3.4820851   0.14532039 
   46300    1153.3709    489.10734   -3.4871841    0.1490143 
   46400     1056.218     498.7656   -3.4802414   0.13646224 
   46500     1085.819    508.92835   -3.4779602   0.14028667 
   46600    1149.2101    505.18687   -3.4819982   0.14847673 
   46700    1129.3292    499.49998   -3.4827709   0.14590813 
   46800    1108.0659    491.60729   -3.4843428   0.14316095 
   46900    1130.5737    478.49258   -3.4876425   0.14606893 
   47000    1169.8879    449.74094   -3.4959433   0.15114828 
   47100     1146.447    419.75056   -3.5009636   0.14811974 
   47200    1080.0386    411.04335   -3.4951196   0.13953985 
   47300    1091.5066     408.2717   -3.4894814    0.1410215 
   47400    1160.9254    387.30925   -3.4922986   0.14999033 
   47500    1150.1451    364.61755   -3.4917329   0.14859753 
   47600    1052.1423    357.66679   -3.4802928   0.13593567 
   47700    1075.3041     345.7355   -3.4737222   0.13892815 
   47800    1173.6776    306.61622   -3.4781211    0.1516379 
   47900    1173.7535    260.61871   -3.4782513   0.15164772 
   48000    1100.1496    216.97486   -3.4728168   0.14213816 
   48100    1150.6332    167.60183   -3.4735733   0.14866059 
   48200    1208.9188    105.80351   -3.4786527   0.15619103 
   48300    1165.8261    41.374079     -3.48029    0.1506235 
   48400     1156.851   -20.136066   -3.4828585   0.14946393 
   48500    1143.6267   -76.162498   -3.4825247   0.14775535 
   48600    1159.9448   -125.95316   -3.4807038   0.14986365 
   48700    1191.6088   -174.64036   -3.4805333   0.15395459 
   48800     1138.343   -212.40519   -3.4743795   0.14707272 
   48900    1107.8502   -234.05276    -3.464791   0.14313307 
   49000     1118.094   -258.01666    -3.458738   0.14445656 
   49100    1196.2588   -294.67273   -3.4605703   0.15455537 
   49200    1249.8481   -346.34658   -3.4679902   0.16147905 
   49300    1206.9366   -397.13791   -3.4726157   0.15593493 
   49400    1155.7134   -428.85641   -3.4719799   0.14931695 
   49500    1134.5831   -439.25487    -3.466792   0.14658693 
   49600    1147.4058   -437.33059   -3.4594913   0.14824362 
   49700    1176.0036   -438.82303   -3.4550428   0.15193843 
   49800    1208.8054   -444.08835   -3.4533271   0.15617638 
   49900    1224.5712   -452.01533   -3.4539043   0.15821331 
   50000    1221.2011   -464.77459   -3.4589655   0.15777789 
Loop time of 351.672 on 4 procs for 50000 steps with 2112 atoms

Performance: 1.228 ns/day, 19.537 hours/ns, 142.178 timesteps/s
99.4% CPU use with 4 MPI tasks x 1 OpenMP threads

MPI task timing breakdown:
Section |  min time  |  avg time  |  max time  |%varavg| %total
---------------------------------------------------------------
Pair    | 280.03     | 303.34     | 343.07     | 138.0 | 86.26
Neigh   | 0.051459   | 0.057701   | 0.066335   |   2.3 |  0.02
Comm    | 6.0683     | 45.886     | 69.072     | 355.2 | 13.05
Output  | 0.72773    | 0.72933    | 0.73378    |   0.3 |  0.21
Modify  | 0.94448    | 1.0936     | 1.2483     |  11.7 |  0.31
Other   |            | 0.5697     |            |       |  0.16

Nlocal:        528.000 ave         528 max         528 min
Histogram: 4 0 0 0 0 0 0 0 0 0
Nghost:        1324.00 ave        1324 max        1324 min
Histogram: 4 0 0 0 0 0 0 0 0 0
Neighs:         0.00000 ave           0 max           0 min
Histogram: 4 0 0 0 0 0 0 0 0 0
FullNghs:      215343.0 ave      215343 max      215343 min
Histogram: 4 0 0 0 0 0 0 0 0 0

Total # of neighbors = 861372
Ave neighs/atom = 407.84659
Neighbor list builds = 9
Dangerous builds = 0
unfix 1
reset_timestep 0
label loop2
variable a loop 10
print "Temp: ${te}"
Temp: 1200
fix 1 1 nvt temp ${te} ${te} 0.01 fixedpoint 20.0 20.0 20.0
fix 1 1 nvt temp 1200 ${te} 0.01 fixedpoint 20.0 20.0 20.0
fix 1 1 nvt temp 1200 1200 0.01 fixedpoint 20.0 20.0 20.0
timestep ${dt}
timestep 0.0001
run 10000
Per MPI rank memory allocation (min/avg/max) = 5.359 | 5.359 | 5.359 Mbytes
Step Temp Press c_ape c_ake 
       0    1221.2011   -464.77459   -3.4589655   0.15777789 
     100    1189.7651   -459.02394   -3.4582267   0.15371639 
     200    1120.9925   -432.90161   -3.4497806   0.14483104 
     300    1159.0423    -402.8529   -3.4464253   0.14974703 
     400    1212.4657   -376.78457   -3.4469615   0.15664929 
     500    1184.8931   -340.30222   -3.4401229   0.15308693 
     600    1149.9627   -295.78885   -3.4291429   0.14857397 
     700    1160.3408   -258.69935   -3.4221175    0.1499148 
     800     1194.931   -234.33457   -3.4189164   0.15438382 
     900    1262.1619   -233.69136   -3.4242169   0.16306998 
    1000    1282.5963   -260.45415   -3.4364768   0.16571009 
    1100     1252.582   -285.02909   -3.4442906   0.16183226 
    1200     1196.493   -297.44083   -3.4465157   0.15458563 
    1300    1208.2978   -310.12548   -3.4533245    0.1561108 
    1400    1220.1374   -324.14281    -3.461245   0.15764046 
    1500    1199.4273   -330.79719   -3.4654667   0.15496474 
    1600    1198.8732   -329.92365   -3.4698458   0.15489316 
    1700    1177.5206   -315.41732    -3.470259   0.15213441 
    1800    1150.9362   -282.19625   -3.4638634   0.14869974 
    1900     1189.989   -252.01265   -3.4614572   0.15374532 
    2000    1268.0399    -245.3607    -3.469995   0.16382941 
    2100     1240.737   -242.40108    -3.476117   0.16030191 
    2200    1128.1517   -205.25018   -3.4668792     0.145756 
    2300    1058.1209   -138.00084   -3.4489991    0.1367081 
    2400    1128.1877   -89.137821   -3.4447779   0.14576066 
    2500    1305.0774   -75.369772   -3.4588068   0.16861462 
    2600    1261.1678   -66.924502   -3.4653518   0.16294154 
    2700    1125.1899   -29.480534    -3.457359   0.14537335 
    2800    1116.8977    24.394074   -3.4488086     0.144302 
    2900    1217.8478    66.805296   -3.4499429   0.15734464 
    3000    1270.4271    93.943018    -3.454894   0.16413784 
    3100     1204.959    115.95405   -3.4569913   0.15567943 
    3200    1200.7466    137.55618   -3.4631267    0.1551352 
    3300    1240.2993    151.65139   -3.4749607   0.16024536 
    3400    1223.4026    167.69686   -3.4829043   0.15806233 
    3500    1161.1883    201.68966   -3.4819985   0.15002431 
    3600     1083.839    267.11551   -3.4675552   0.14003086 
    3700    1103.7281    334.19986   -3.4571772    0.1426005 
    3800    1258.8107    368.73456   -3.4660751   0.16263701 
    3900     1262.627    387.23405   -3.4718066   0.16313008 
    4000     1171.858    403.90298     -3.47017   0.15140281 
    4100    1209.8501    409.94569   -3.4774593   0.15631135 
    4200     1206.468    421.45934   -3.4810416   0.15587438 
    4300     1124.123    451.54822   -3.4732633   0.14523551 
    4400    1139.0654    486.88487   -3.4654993   0.14716604 
    4500    1214.0437    501.06014   -3.4658495   0.15685316 
    4600    1278.8561    490.26388   -3.4736079   0.16522686 
    4700    1234.0783    467.56413     -3.47922   0.15944162 
    4800    1204.3927    443.09385   -3.4837081   0.15560627 
    4900    1203.7476    415.61946   -3.4897769   0.15552291 
    5000    1168.4014    395.82213   -3.4896158   0.15095623 
    5100    1157.5595    384.84271   -3.4847865   0.14955547 
    5200    1194.1996    372.17346   -3.4818451   0.15428933 
    5300    1234.4888    352.67701   -3.4836989   0.15949465 
    5400    1205.3148    331.16804   -3.4844685    0.1557254 
    5500    1155.2494    313.08035   -3.4810963   0.14925701 
    5600    1171.1795    295.99786   -3.4771776   0.15131515 
    5700    1188.2148    272.61057   -3.4744704   0.15351609 
    5800    1211.0709     245.5332   -3.4734374   0.15646908 
    5900    1237.0087    210.04879   -3.4766073   0.15982022 
    6000     1202.176    170.13273   -3.4793035   0.15531987 
    6100    1161.3412    139.32864     -3.47541   0.15004406 
    6200    1173.3317    103.48002    -3.470719   0.15159321 
    6300    1267.1537    36.203716   -3.4795793   0.16371492 
    6400    1284.0462    -46.02819   -3.4915025   0.16589741 
    6500    1188.9004   -99.041567   -3.4890948   0.15360467 
    6600    1084.7585   -118.13934   -3.4751932   0.14014964 
    6700    1091.3514   -125.68211   -3.4634645   0.14100145 
    6800    1159.4832   -141.18705   -3.4592354   0.14980401 
    6900     1241.438   -168.86416   -3.4606739   0.16039248 
    7000    1226.9024   -204.35836   -3.4605691   0.15851449 
    7100    1129.5567   -231.70055   -3.4533838   0.14593753 
    7200    1134.5589   -247.61761   -3.4456893   0.14658382 
    7300    1221.3831   -271.10752   -3.4469081    0.1578014 
    7400    1231.3992   -291.62315   -3.4467715   0.15909547 
    7500    1137.9842   -301.80015    -3.438684   0.14702635 
    7600    1158.6277   -310.53699   -3.4339015   0.14969347 
    7700     1232.795   -330.02406   -3.4361521    0.1592758 
    7800     1228.804   -347.56651   -3.4375835   0.15876017 
    7900    1170.5687     -353.729   -3.4361819   0.15123624 
    8000    1173.2018   -351.31778   -3.4348072   0.15157643 
    8100    1226.2284    -353.7648   -3.4358262   0.15842741 
    8200    1255.3361   -376.46321   -3.4422915   0.16218809 
    8300    1238.4827   -406.48727   -3.4483654   0.16001065 
    8400    1197.2431    -425.7774   -3.4496146   0.15468254 
    8500    1178.4632   -433.96429   -3.4501825    0.1522562 
    8600    1188.5926   -431.90361   -3.4490949   0.15356491 
    8700    1211.5525   -426.29389   -3.4469031    0.1565313 
    8800    1209.2881   -423.54071   -3.4452148   0.15623874 
    8900    1183.4135   -416.64639   -3.4429063   0.15289577 
    9000    1176.8064   -399.08075   -3.4393478   0.15204214 
    9100    1223.9593   -378.12996   -3.4387233   0.15813424 
    9200    1224.9082    -365.8271   -3.4401857   0.15825685 
    9300    1187.9058   -358.72452   -3.4410978   0.15347617 
    9400     1199.398   -352.74034   -3.4436624   0.15496095 
    9500    1236.4158   -350.26075   -3.4503422   0.15974361 
    9600    1196.4266   -339.44629   -3.4532086   0.15457706 
    9700    1153.5459   -301.57584   -3.4472854   0.14903691 
    9800    1201.3167   -258.42045   -3.4461192   0.15520884 
    9900    1296.4091   -236.80736   -3.4586924   0.16749468 
   10000     1311.461    -223.9126   -3.4733554   0.16943937 
Loop time of 71.3026 on 4 procs for 10000 steps with 2112 atoms

Performance: 1.212 ns/day, 19.806 hours/ns, 140.247 timesteps/s
99.6% CPU use with 4 MPI tasks x 1 OpenMP threads

MPI task timing breakdown:
Section |  min time  |  avg time  |  max time  |%varavg| %total
---------------------------------------------------------------
Pair    | 51.38      | 60.686     | 69.982     | 115.6 | 85.11
Neigh   | 0.028348   | 0.036498   | 0.043968   |   3.9 |  0.05
Comm    | 0.75832    | 10.066     | 19.39      | 284.5 | 14.12
Output  | 0.1887     | 0.18905    | 0.18997    |   0.1 |  0.27
Modify  | 0.16599    | 0.20929    | 0.25625    |   8.1 |  0.29
Other   |            | 0.1161     |            |       |  0.16

Nlocal:        528.000 ave         528 max         528 min
Histogram: 4 0 0 0 0 0 0 0 0 0
Nghost:        1324.00 ave        1324 max        1324 min
Histogram: 4 0 0 0 0 0 0 0 0 0
Neighs:         0.00000 ave           0 max           0 min
Histogram: 4 0 0 0 0 0 0 0 0 0
FullNghs:      214078.0 ave      214078 max      214078 min
Histogram: 4 0 0 0 0 0 0 0 0 0

Total # of neighbors = 856312
Ave neighs/atom = 405.45076
Neighbor list builds = 6
Dangerous builds = 0
unfix 1
reset_timestep 0
variable te equal ${te}+100
variable te equal 1200+100
next a
jump SELF loop2
variable a loop 10
print "Temp: ${te}"
Temp: 1300
fix 1 1 nvt temp ${te} ${te} 0.01 fixedpoint 20.0 20.0 20.0
fix 1 1 nvt temp 1300 ${te} 0.01 fixedpoint 20.0 20.0 20.0
fix 1 1 nvt temp 1300 1300 0.01 fixedpoint 20.0 20.0 20.0
timestep ${dt}
timestep 0.0001
run 10000
Per MPI rank memory allocation (min/avg/max) = 5.359 | 5.359 | 5.359 Mbytes
Step Temp Press c_ape c_ake 
       0     1311.461    -223.9126   -3.4733554   0.16943937 
     100    1311.0977   -180.82225   -3.4772111   0.16939243 
     200    1231.9545   -117.48638   -3.4705237   0.15916721 
     300    1227.5133   -45.869764    -3.463367   0.15859342 
     400    1255.6037    22.036682   -3.4579586   0.16222267 
     500     1308.922    79.935343   -3.4565787   0.16911134 
     600    1343.0153    125.68894    -3.458756   0.17351616 
     700    1298.2828    166.27781   -3.4596288   0.16773676 
     800    1298.8087    207.42649   -3.4638739   0.16780472 
     900    1313.7817    246.43687   -3.4695051   0.16973921 
    1000    1324.6714    272.95448   -3.4772886   0.17114614 
    1100    1329.3202    295.79949    -3.483794   0.17174676 
    1200    1235.7383    336.39083   -3.4751348   0.15965608 
    1300    1242.0645     377.7278   -3.4678937   0.16047342 
    1400    1347.5931      389.551   -3.4750697   0.17410761 
    1500    1376.4117    381.44204   -3.4854153   0.17783094 
    1600    1261.3505    391.11433   -3.4800269   0.16296515 
    1700    1177.0752    423.17972   -3.4644445   0.15207687 
    1800    1249.2635    443.64229   -3.4609897   0.16140352 
    1900     1334.869     454.7679   -3.4629514   0.17246367 
    2000    1295.4304    468.33348   -3.4572125   0.16736824 
    2100    1257.7926    477.40416   -3.4508922   0.16250547 
    2200    1267.9281    485.22488   -3.4434001   0.16381497 
    2300    1303.3579    482.09267     -3.43956   0.16839246 
    2400    1368.9365    459.56844   -3.4459628   0.17686514 
    2500    1310.2478    432.85846   -3.4479567   0.16928262 
    2600    1294.5221    403.16388   -3.4506363   0.16725088 
    2700    1357.1455    353.13137   -3.4636123   0.17534177 
    2800    1349.2839    302.17516   -3.4728642   0.17432605 
    2900    1315.3573    261.72772   -3.4771051   0.16994277 
    3000    1290.6555    229.09096   -3.4804699   0.16675133 
    3100    1230.1363    219.33555   -3.4736549    0.1589323 
    3200    1231.0094    222.65303   -3.4640002   0.15904511 
    3300    1298.9607    207.93088   -3.4635705   0.16782435 
    3400    1342.6589    181.68682   -3.4658319   0.17347011 
    3500    1249.9899    164.13003   -3.4583932   0.16149738 
    3600    1254.0471    152.29222    -3.453499   0.16202156 
    3700    1340.8122    125.28605   -3.4583369   0.17323152 
    3800    1348.5671    86.245692   -3.4645869   0.17423344 
    3900    1322.1278    48.517792   -3.4697107   0.17081751 
    4000    1329.5957    9.8737944   -3.4779983   0.17178236 
    4100    1305.7873   -24.901009   -3.4825096   0.16870634 
    4200    1277.6134   -52.336127   -3.4828294    0.1650663 
    4300    1276.6954   -72.309157   -3.4808573   0.16494769 
    4400    1267.3686   -81.160999   -3.4723896   0.16374268 
    4500    1236.0981   -90.925671   -3.4615477   0.15970257 
    4600    1230.4633   -103.55503   -3.4515501   0.15897455 
    4700    1220.4155   -117.75669   -3.4394494   0.15767639 
    4800    1275.9939   -151.66632   -3.4350497   0.16485706 
    4900    1388.7665   -216.09803   -3.4440468   0.17942716 
    5000    1365.4261   -294.03568   -3.4527356   0.17641161 
    5100    1331.5521   -361.19185   -3.4604026   0.17203512 
    5200    1275.9645   -402.80553   -3.4622937   0.16485326 
    5300    1214.6725   -408.77579   -3.4538827   0.15693441 
    5400    1248.9935   -398.89161   -3.4465878   0.16136864 
    5500    1291.8217   -391.08555   -3.4421301   0.16690199 
    5600    1314.1922   -380.89797   -3.4382844   0.16979224 
    5700    1288.1678   -361.21753   -3.4318581   0.16642992 
    5800    1244.8074   -330.61119    -3.419961   0.16082779 
    5900    1264.9804    -310.8954   -3.4127833   0.16343413 
    6000    1330.5912   -313.08796   -3.4139581   0.17191098 
    6100    1324.0236   -321.56014   -3.4145564   0.17106246 
    6200    1237.9938   -318.64331   -3.4079786    0.1599475 
    6300    1298.1699   -314.17433   -3.4088111   0.16772218 
    6400    1386.5637   -331.14888   -3.4195325   0.17914256 
    6500    1410.2095   -366.72244   -3.4346226   0.18219758 
    6600    1396.4431   -395.35652   -3.4478698   0.18041897 
    6700    1290.0777   -392.18592   -3.4476192   0.16667667 
    6800    1203.5054   -359.09885   -3.4384952   0.15549162 
    6900    1266.5352   -316.73876   -3.4344477   0.16363501 
    7000    1332.1228   -276.88137   -3.4342274   0.17210886 
    7100    1327.8252   -237.92872    -3.433727   0.17155361 
    7200    1306.2214   -211.21435   -3.4374401   0.16876242 
    7300    1343.8102   -203.24383    -3.449847   0.17361886 
    7400    1345.9945   -197.59918   -3.4609655   0.17390107 
    7500    1279.0019   -172.99772   -3.4609751   0.16524569 
    7600    1253.7465   -136.00407   -3.4582425   0.16198272 
    7700    1276.9799   -88.302514     -3.45305   0.16498445 
    7800    1303.5071   -45.490366   -3.4494935   0.16841174 
    7900    1374.4816    -27.43942   -3.4572789   0.17758157 
    8000    1352.3992   -25.448831    -3.465083   0.17472854 
    8100    1282.3586   -12.579852   -3.4639907   0.16567937 
    8200    1250.6921    6.6404779   -3.4602051    0.1615881 
    8300    1342.5636    15.395528   -3.4647533    0.1734578 
    8400    1400.6872   0.58331837   -3.4780448    0.1809673 
    8500    1352.8565    -5.315101   -3.4841081   0.17478763 
    8600    1280.8052    10.428234   -3.4840937   0.16547868 
    8700    1251.9337    42.208469    -3.481488   0.16174851 
    8800    1307.0365    81.078652   -3.4809414   0.16886773 
    8900     1315.485    121.93631   -3.4784569   0.16995927 
    9000    1256.6399    172.82382   -3.4699161   0.16235655 
    9100     1237.895    233.31927   -3.4588198   0.15993473 
    9200    1281.6941    277.16708   -3.4559142   0.16559352 
    9300    1337.8328     306.5538   -3.4579834   0.17284659 
    9400    1297.7589    334.42343   -3.4561184   0.16766908 
    9500    1270.6872     361.9766   -3.4555278   0.16417144 
    9600    1304.1882    394.08114   -3.4561567   0.16849974 
    9700    1278.1569    439.99616   -3.4476613   0.16513652 
    9800    1280.1612    478.12848   -3.4417965   0.16539547 
    9900    1346.1376    487.13125    -3.448667   0.17391956 
   10000    1291.4758    494.72973   -3.4482931    0.1668573 
Loop time of 71.7294 on 4 procs for 10000 steps with 2112 atoms

Performance: 1.205 ns/day, 19.925 hours/ns, 139.413 timesteps/s
99.6% CPU use with 4 MPI tasks x 1 OpenMP threads

MPI task timing breakdown:
Section |  min time  |  avg time  |  max time  |%varavg| %total
---------------------------------------------------------------
Pair    | 51.874     | 61.072     | 70.408     | 115.8 | 85.14
Neigh   | 0.023724   | 0.030585   | 0.036785   |   3.5 |  0.04
Comm    | 0.7594     | 10.106     | 19.321     | 285.4 | 14.09
Output  | 0.19424    | 0.19462    | 0.19556    |   0.1 |  0.27
Modify  | 0.1657     | 0.20974    | 0.25684    |   8.2 |  0.29
Other   |            | 0.1164     |            |       |  0.16

Nlocal:        528.000 ave         528 max         528 min
Histogram: 4 0 0 0 0 0 0 0 0 0
Nghost:        1324.00 ave        1324 max        1324 min
Histogram: 4 0 0 0 0 0 0 0 0 0
Neighs:         0.00000 ave           0 max           0 min
Histogram: 4 0 0 0 0 0 0 0 0 0
FullNghs:      221508.0 ave      221508 max      221508 min
Histogram: 4 0 0 0 0 0 0 0 0 0

Total # of neighbors = 886032
Ave neighs/atom = 419.52273
Neighbor list builds = 5
Dangerous builds = 0
unfix 1
reset_timestep 0
variable te equal ${te}+100
variable te equal 1300+100
next a
jump SELF loop2
variable a loop 10
print "Temp: ${te}"
Temp: 1400
fix 1 1 nvt temp ${te} ${te} 0.01 fixedpoint 20.0 20.0 20.0
fix 1 1 nvt temp 1400 ${te} 0.01 fixedpoint 20.0 20.0 20.0
fix 1 1 nvt temp 1400 1400 0.01 fixedpoint 20.0 20.0 20.0
timestep ${dt}
timestep 0.0001
run 10000
Per MPI rank memory allocation (min/avg/max) = 5.359 | 5.359 | 5.359 Mbytes
Step Temp Press c_ape c_ake 
       0    1291.4758    494.72973   -3.4482931    0.1668573 
     100    1280.0168    529.05284   -3.4375999   0.16537682 
     200    1276.2742    567.72658   -3.4243706   0.16489327 
     300     1296.735    599.73819   -3.4116776   0.16753679 
     400    1398.1576    602.06444   -3.4098626   0.18064048 
     500     1567.275    553.93181   -3.4294477   0.20249027 
     600    1486.5332    494.85673   -3.4399093   0.19205852 
     700    1347.7915     455.3154   -3.4356485   0.17413323 
     800    1378.8207     408.2674   -3.4389564   0.17814217 
     900    1501.1319    345.47944   -3.4513863   0.19394465 
    1000    1436.4282    275.36139   -3.4571124     0.185585 
    1100    1369.7007    213.00375   -3.4585901   0.17696388 
    1200    1405.3184    149.59388   -3.4654815   0.18156565 
    1300    1420.7866    93.925284   -3.4710738   0.18356413 
    1400    1317.1309    67.702299   -3.4625662   0.17017192 
    1500    1351.0235    55.000587   -3.4570084    0.1745508 
    1600    1454.8004    28.005308   -3.4622171   0.18795867 
    1700    1416.1968    3.8346351   -3.4620147   0.18297113 
    1800    1350.7664   -12.013365   -3.4589604   0.17451759 
    1900    1399.9648   -26.909407    -3.460118   0.18087397 
    2000    1410.1253   -39.415916   -3.4571275    0.1821867 
    2100    1332.6484   -43.392568   -3.4434634   0.17217677 
    2200    1340.1442   -63.221486   -3.4344292   0.17314521 
    2300     1469.019   -125.93472    -3.443798    0.1897957 
    2400    1509.8287   -213.49522   -3.4586327   0.19506827 
    2500    1430.1073   -278.89444   -3.4621059   0.18476835 
    2600    1312.8895   -307.39393   -3.4535587   0.16962393 
    2700    1303.8466    -312.2584   -3.4419574    0.1684556 
    2800    1396.4645   -332.22355   -3.4411881   0.18042173 
    2900    1456.7575   -361.15869   -3.4440139   0.18821153 
    3000    1327.8836   -365.98908   -3.4327805   0.17156115 
    3100    1243.8814   -337.59956   -3.4130779   0.16070817 
    3200    1299.2069   -318.53104    -3.404453   0.16785615 
    3300    1442.7257   -326.05557   -3.4094235   0.18639863 
    3400    1490.2886   -352.11232   -3.4170965   0.19254371 
    3500    1414.6826   -380.00535   -3.4218641    0.1827755 
    3600     1342.284   -386.14559   -3.4203681   0.17342167 
    3700     1294.342   -357.58778   -3.4075354   0.16722762 
    3800    1314.4812   -320.67401   -3.3949581   0.16982958 
    3900    1441.5039   -314.38618   -3.3982837   0.18624078 
    4000    1508.5873   -343.60689   -3.4093593   0.19490789 
    4100    1454.5739   -388.23615   -3.4189564   0.18792941 
    4200    1402.3399   -418.92993   -3.4252108   0.18118084 
    4300    1322.2019   -417.15595   -3.4206902   0.17082709 
    4400    1301.5475   -384.01681   -3.4078252   0.16815857 
    4500    1336.3135   -349.25072   -3.3976144   0.17265029 
    4600    1416.0346   -329.99261   -3.3952019   0.18295017 
    4700    1501.0057   -333.88437   -3.4044198   0.19392835 
    4800    1422.4307   -336.22018   -3.4086374   0.18377654 
    4900    1339.5251   -311.41741   -3.4058027   0.17306523 
    5000    1318.3811   -256.41663    -3.396407   0.17033344 
    5100    1369.9436   -199.55657   -3.3898561   0.17699526 
    5200    1501.3488   -177.39874   -3.3996707   0.19397267 
    5300    1509.1807   -184.21476    -3.414429   0.19498455 
    5400    1436.9165   -179.34605     -3.42114   0.18564809 
    5500    1357.9275   -157.45934   -3.4207636    0.1754428 
    5600    1393.8208   -134.99162   -3.4247197   0.18008017 
    5700    1479.6464   -120.95246   -3.4347078   0.19116874 
    5800    1478.8848   -114.12376   -3.4478289   0.19107035 
    5900    1470.9199   -98.598239   -3.4616522   0.19004129 
    6000    1423.1888   -69.191102   -3.4691937   0.18387449 
    6100    1359.6484   -29.211291   -3.4695745   0.17566513 
    6200    1357.5239    15.651194    -3.467162   0.17539065 
    6300    1428.8156     56.32271   -3.4678124   0.18460147 
    6400    1413.8003    92.649765   -3.4648447   0.18266151 
    6500    1359.8736    127.86083   -3.4599357   0.17569423 
    6600    1343.5916    174.88986    -3.451135   0.17359061 
    6700    1327.7653    227.08454   -3.4387044   0.17154587 
    6800    1439.4628    253.98049   -3.4435554   0.18597707 
    6900    1506.0022    255.16391   -3.4567084   0.19457389 
    7000    1455.9271    258.41145   -3.4647032   0.18810425 
    7100    1351.0752    282.33495   -3.4607722   0.17455748 
    7200    1351.4965     312.4531   -3.4572627   0.17461192 
    7300    1453.5596    332.97862   -3.4620793   0.18779836 
    7400    1391.5704    356.94945   -3.4581409   0.17978943 
    7500    1300.9706    393.43356   -3.4463706   0.16808403 
    7600    1402.2015    414.49774   -3.4487891   0.18116295 
    7700    1453.8628     421.5603   -3.4534807   0.18783754 
    7800    1380.2318    428.48392   -3.4518064   0.17832448 
    7900    1358.8955    437.80269   -3.4499412   0.17556786 
    8000    1385.2322    450.29613   -3.4458197   0.17897053 
    8100    1365.4689    462.94501    -3.437384   0.17641713 
    8200    1364.4591    469.39785    -3.429647   0.17628667 
    8300    1467.7009     444.4376   -3.4380334    0.1896254 
    8400    1487.2058      400.094   -3.4503647   0.19214542 
    8500    1421.6887    368.55109   -3.4530347   0.18368067 
    8600     1316.673    356.00007    -3.444843   0.17011276 
    8700    1268.0217    367.88208   -3.4279618   0.16382706 
    8800    1314.2117    372.16301   -3.4193797   0.16979476 
    8900    1429.8222    357.87521   -3.4219357   0.18473151 
    9000    1427.7507    339.45802   -3.4193299   0.18446388 
    9100    1393.9485    308.44656   -3.4192757   0.18009667 
    9200    1458.9191      249.651   -3.4332471   0.18849081 
    9300    1468.6253     180.0315   -3.4477168   0.18974483 
    9400    1393.0862    131.72943   -3.4498724   0.17998527 
    9500    1327.3307    104.61778    -3.444293   0.17148973 
    9600    1380.1526    87.307418   -3.4412041   0.17831426 
    9700    1386.9064    75.352354   -3.4341547   0.17918683 
    9800    1384.6614    59.877399    -3.426004   0.17889678 
    9900    1486.5406    12.746819   -3.4345276   0.19205947 
   10000    1499.4634   -54.536676   -3.4482792   0.19372908 
Loop time of 67.8186 on 4 procs for 10000 steps with 2112 atoms

Performance: 1.274 ns/day, 18.838 hours/ns, 147.452 timesteps/s
99.5% CPU use with 4 MPI tasks x 1 OpenMP threads

MPI task timing breakdown:
Section |  min time  |  avg time  |  max time  |%varavg| %total
---------------------------------------------------------------
Pair    | 51.798     | 58.938     | 66.227     |  66.8 | 86.91
Neigh   | 0.033459   | 0.042182   | 0.049422   |   3.1 |  0.06
Comm    | 1.0815     | 8.3854     | 15.545     | 177.6 | 12.36
Output  | 0.13609    | 0.13644    | 0.13733    |   0.1 |  0.20
Modify  | 0.18223    | 0.20802    | 0.23458    |   5.5 |  0.31
Other   |            | 0.1082     |            |       |  0.16

Nlocal:        528.000 ave         528 max         528 min
Histogram: 4 0 0 0 0 0 0 0 0 0
Nghost:        1324.00 ave        1324 max        1324 min
Histogram: 4 0 0 0 0 0 0 0 0 0
Neighs:         0.00000 ave           0 max           0 min
Histogram: 4 0 0 0 0 0 0 0 0 0
FullNghs:      219303.0 ave      219303 max      219303 min
Histogram: 4 0 0 0 0 0 0 0 0 0

Total # of neighbors = 877212
Ave neighs/atom = 415.34659
Neighbor list builds = 7
Dangerous builds = 0
unfix 1
reset_timestep 0
variable te equal ${te}+100
variable te equal 1400+100
next a
jump SELF loop2
variable a loop 10
print "Temp: ${te}"
Temp: 1500
fix 1 1 nvt temp ${te} ${te} 0.01 fixedpoint 20.0 20.0 20.0
fix 1 1 nvt temp 1500 ${te} 0.01 fixedpoint 20.0 20.0 20.0
fix 1 1 nvt temp 1500 1500 0.01 fixedpoint 20.0 20.0 20.0
timestep ${dt}
timestep 0.0001
run 10000
Per MPI rank memory allocation (min/avg/max) = 5.359 | 5.359 | 5.359 Mbytes
Step Temp Press c_ape c_ake 
       0    1499.4634   -54.536676   -3.4482792   0.19372908 
     100    1512.3869   -93.447567   -3.4525286   0.19539879 
     200    1412.1079   -112.98135   -3.4453307   0.18244285 
     300    1412.4736   -113.43554   -3.4354861   0.18249009 
     400    1370.1012   -105.26898   -3.4188711   0.17701563 
     500    1350.8029   -99.711389   -3.4001321   0.17452231 
     600    1478.7534   -131.09354   -3.3996298   0.19105338 
     700    1594.7303   -191.65549   -3.4069519   0.20603747 
     800    1510.4569   -260.60397   -3.4075557   0.19514943 
     900    1419.5032   -315.63311   -3.4025336   0.18339831 
    1000    1425.7262   -346.21974   -3.3932431   0.18420232 
    1100    1433.7122   -359.84265   -3.3799814    0.1852341 
    1200    1434.8863   -370.49797   -3.3657948    0.1853858 
    1300    1498.1151   -398.03602   -3.3604914   0.19355488 
    1400     1556.867   -439.44803   -3.3617269   0.20114557 
    1500    1497.1328   -480.30705   -3.3599528   0.19342798 
    1600     1480.798    -520.4428   -3.3627949   0.19131753 
    1700    1547.4998   -565.93289   -3.3735629   0.19993534 
    1800    1533.8736   -609.85984   -3.3823318   0.19817484 
    1900    1477.5673   -632.79701   -3.3833582   0.19090013 
    2000    1471.1869   -638.09343   -3.3832286   0.19007579 
    2100    1509.4686   -622.87749   -3.3824238   0.19502174 
    2200    1454.5892   -577.78137   -3.3700677   0.18793139 
    2300    1446.0267   -525.60548    -3.359788   0.18682513 
    2400    1527.3047   -495.71706   -3.3631849   0.19732615 
    2500    1573.7542   -484.72122   -3.3718435   0.20332738 
    2600     1539.724    -481.3067   -3.3787255   0.19893071 
    2700    1520.6457   -476.17077   -3.3850865   0.19646582 
    2800    1528.5766    -469.6148   -3.3944951   0.19749049 
    2900    1506.1939   -449.50785   -3.4000257   0.19459866 
    3000    1457.2827   -411.03262   -3.3976745   0.18827938 
    3100    1506.6895   -373.01457   -3.3986525   0.19466268 
    3200    1593.3108   -354.81176   -3.4088955   0.20585407 
    3300     1554.192   -335.19134   -3.4146987   0.20079996 
    3400    1440.0157   -281.02276   -3.4068256    0.1860485 
    3500    1433.0846   -204.50854   -3.3989834   0.18515302 
    3600      1551.71   -143.85756   -3.4055344   0.20047929 
    3700    1604.3039   -111.36628    -3.419546   0.20727437 
    3800    1552.6743    -80.61608   -3.4270995   0.20060388 
    3900     1482.261   -41.300675   -3.4283495   0.19150655 
    4000    1499.0818   -6.8063254   -3.4342749   0.19367979 
    4100    1528.8378    21.922286   -3.4424654   0.19752423 
    4200    1444.8364    65.596648   -3.4385694   0.18667133 
    4300    1440.4404    121.91111   -3.4319029   0.18610338 
    4400    1507.0372    167.01066   -3.4320424   0.19470761 
    4500    1519.1188    208.26718   -3.4308241   0.19626854 
    4600    1494.3683    250.86101   -3.4294936    0.1930708 
    4700    1469.2644    290.63017   -3.4276018    0.1898274 
    4800    1560.0759    310.71388   -3.4337984   0.20156015 
    4900    1613.7988    294.79907    -3.448396    0.2085011 
    5000    1568.1768    277.18921   -3.4557001   0.20260678 
    5100    1438.9259    283.55524    -3.449241    0.1859077 
    5200    1405.4674    311.63152   -3.4388329   0.18158491 
    5300    1480.4572    334.86143   -3.4355318   0.19127351 
    5400    1561.8612    346.10476   -3.4392985   0.20179081 
    5500    1496.3093    360.42948   -3.4373845   0.19332157 
    5600     1424.141    387.29733   -3.4307447   0.18399752 
    5700     1504.167     411.9717   -3.4312436   0.19433678 
    5800     1557.959    421.54226   -3.4355196   0.20128666 
    5900     1523.273    422.97161   -3.4403494   0.19680526 
    6000    1471.5076    440.66718   -3.4396068   0.19011722 
    6100    1458.0483    472.35381   -3.4351934    0.1883783 
    6200    1501.2305    500.02771   -3.4325307    0.1939574 
    6300    1538.4911    504.68837   -3.4354173   0.19877142 
    6400     1509.102    494.89314   -3.4384499   0.19497438 
    6500     1458.636    495.16522   -3.4353836   0.18845423 
    6600    1468.1434    502.38485   -3.4310928   0.18968257 
    6700    1502.0867    492.36528    -3.429649   0.19406801 
    6800    1575.0885    445.89826   -3.4395631   0.20349977 
    6900    1557.8371    384.51807   -3.4482602   0.20127091 
    7000    1533.2804    331.25848   -3.4544943   0.19809821 
    7100    1480.5506    295.65705   -3.4561679   0.19128557 
    7200    1378.7769    300.40431   -3.4415996   0.17813652 
    7300    1354.3467    316.64776   -3.4244857   0.17498016 
    7400    1492.7174    292.25689   -3.4272303   0.19285751 
    7500    1629.4529    233.43449   -3.4416173   0.21052359 
    7600    1516.4017    179.89835   -3.4432444    0.1959175 
    7700    1396.8914    155.05404   -3.4336897   0.18047689 
    7800    1409.1919    144.55521   -3.4225572   0.18206611 
    7900    1488.0104     117.9267   -3.4184981   0.19224937 
    8000    1584.5254    71.445045   -3.4245604     0.204719 
    8100    1494.4933    29.325687   -3.4231402   0.19308695 
    8200     1429.512   -2.3853085   -3.4182738   0.18469144 
    8300    1537.5866   -45.356889   -3.4233671   0.19865456 
    8400    1550.5542   -101.92008   -3.4262558   0.20032996 
    8500    1504.4066   -169.72566   -3.4297982   0.19436774 
    8600    1531.2667   -243.76745   -3.4405653   0.19783804 
    8700    1466.2571   -294.84814   -3.4400196   0.18943887 
    8800    1369.2659   -304.40477   -3.4231071   0.17690771 
    8900    1366.4188   -307.01593   -3.4090236   0.17653987 
    9000    1494.6959    -332.6572   -3.4108611   0.19311312 
    9100    1595.6925   -373.28332   -3.4192064   0.20616179 
    9200    1504.9623   -405.04979    -3.420153   0.19443954 
    9300    1402.9251   -405.87486   -3.4115913   0.18125644 
    9400    1440.4387   -392.53259    -3.404214   0.18610316 
    9500    1530.1143   -393.46836   -3.4050128   0.19768914 
    9600    1534.2475   -400.34114   -3.4046078   0.19822316 
    9700    1446.4945   -401.21922   -3.3988085   0.18688556 
    9800     1440.223   -388.45977   -3.3920151   0.18607529 
    9900    1470.1578    -369.1471   -3.3853666   0.18994283 
   10000    1467.6378   -345.65783   -3.3760157   0.18961725 
Loop time of 71.0377 on 4 procs for 10000 steps with 2112 atoms

Performance: 1.216 ns/day, 19.733 hours/ns, 140.770 timesteps/s
99.6% CPU use with 4 MPI tasks x 1 OpenMP threads

MPI task timing breakdown:
Section |  min time  |  avg time  |  max time  |%varavg| %total
---------------------------------------------------------------
Pair    | 51.032     | 60.394     | 69.667     | 119.2 | 85.02
Neigh   | 0.037691   | 0.048566   | 0.059405   |   4.8 |  0.07
Comm    | 0.82607    | 10.108     | 19.453     | 291.6 | 14.23
Output  | 0.14618    | 0.14651    | 0.14738    |   0.1 |  0.21
Modify  | 0.19227    | 0.22584    | 0.26008    |   5.1 |  0.32
Other   |            | 0.1149     |            |       |  0.16

Nlocal:        528.000 ave         528 max         528 min
Histogram: 4 0 0 0 0 0 0 0 0 0
Nghost:        1316.00 ave        1316 max        1316 min
Histogram: 4 0 0 0 0 0 0 0 0 0
Neighs:         0.00000 ave           0 max           0 min
Histogram: 4 0 0 0 0 0 0 0 0 0
FullNghs:      210779.0 ave      210781 max      210778 min
Histogram: 2 0 0 1 0 0 0 0 0 1

Total # of neighbors = 843116
Ave neighs/atom = 399.20265
Neighbor list builds = 8
Dangerous builds = 0
unfix 1
reset_timestep 0
variable te equal ${te}+100
variable te equal 1500+100
next a
jump SELF loop2
variable a loop 10
print "Temp: ${te}"
Temp: 1600
fix 1 1 nvt temp ${te} ${te} 0.01 fixedpoint 20.0 20.0 20.0
fix 1 1 nvt temp 1600 ${te} 0.01 fixedpoint 20.0 20.0 20.0
fix 1 1 nvt temp 1600 1600 0.01 fixedpoint 20.0 20.0 20.0
timestep ${dt}
timestep 0.0001
run 10000
Per MPI rank memory allocation (min/avg/max) = 5.359 | 5.359 | 5.359 Mbytes
Step Temp Press c_ape c_ake 
       0    1467.6378   -345.65783   -3.3760157   0.18961725 
     100    1499.7177   -330.29006   -3.3695547   0.19376194 
     200    1655.4807   -346.64452    -3.379623   0.21388636 
     300    1704.8814   -378.93639   -3.3926452   0.22026887 
     400    1549.1992   -379.61447   -3.3853202    0.2001549 
     500    1476.7845   -354.60731    -3.371007   0.19079899 
     600    1538.2687   -335.82892   -3.3639284   0.19874269 
     700    1579.4248   -320.54933    -3.356562   0.20406001 
     800    1612.0957   -311.86687   -3.3508152   0.20828107 
     900    1696.0724   -333.72056   -3.3593737   0.21913076 
    1000    1685.9269   -379.45065    -3.372949   0.21781998 
    1100    1658.3986   -416.04466   -3.3846445   0.21426335 
    1200    1580.2544   -425.86248   -3.3871082    0.2041672 
    1300    1496.4196   -400.65244    -3.377485   0.19333584 
    1400    1528.0395   -355.17198   -3.3674991   0.19742109 
    1500     1572.913   -308.41435   -3.3601878    0.2032187 
    1600    1617.0359   -264.27124   -3.3559314   0.20891933 
    1700    1672.5931   -239.93258   -3.3606162   0.21609726 
    1800    1719.4866   -256.15322   -3.3800896   0.22215585 
    1900    1748.6416   -282.50427   -3.4031475   0.22592265 
    2000    1654.0751   -278.28589   -3.4112063   0.21370476 
    2100    1518.5443   -240.17043    -3.405034   0.19619431 
    2200    1566.7319   -195.18241   -3.4041981   0.20242011 
    2300    1689.0311   -161.46268   -3.4116683   0.21822103 
    2400    1615.1789   -133.18132   -3.4122806   0.20867941 
    2500    1550.9634   -102.78316   -3.4113456   0.20038283 
    2600    1617.8201   -77.191339   -3.4167799   0.20902065 
    2700    1657.5129   -56.186344   -3.4225794   0.21414892 
    2800    1577.1809   -31.320612    -3.421992   0.20377011 
    2900    1562.7952    5.4907615   -3.4212555   0.20191149 
    3000    1593.0856    61.327698   -3.4178718   0.20582497 
    3100    1580.1198    128.18976   -3.4096839   0.20414981 
    3200    1593.9279    185.38072   -3.4056008    0.2059338 
    3300    1590.5361    237.73066   -3.4010642   0.20549558 
    3400    1585.1815    292.09972   -3.3960329   0.20480377 
    3500     1582.389    343.10251   -3.3909585   0.20444298 
    3600    1586.5062    382.68229   -3.3881728   0.20497493 
    3700    1661.2346    401.40828   -3.3959248   0.21462975 
    3800    1694.4675    396.70513   -3.4111085   0.21892341 
    3900    1595.1663    409.36859   -3.4089269   0.20609379 
    4000    1528.1314    431.28335   -3.4021314   0.19743297 
    4100    1662.0901    443.15692   -3.4103507   0.21474028 
    4200    1666.0063     451.8894   -3.4176947   0.21524625 
    4300     1586.856    471.07246   -3.4167945   0.20502011 
    4400    1597.9318    481.41809   -3.4211688    0.2064511 
    4500    1613.5832    484.36783   -3.4262697   0.20847325 
    4600    1571.9566    485.60775   -3.4268235   0.20309513 
    4700    1604.2768    479.62972   -3.4316326   0.20727086 
    4800     1634.363    464.52947   -3.4373613   0.21115797 
    4900    1597.5284    438.24015   -3.4433437   0.20639898 
    5000    1601.8853    421.18281   -3.4481813   0.20696189 
    5100    1544.9334    424.66638   -3.4430578   0.19960376 
    5200    1527.4781      447.777   -3.4310454   0.19734856 
    5300    1549.1936    458.78216   -3.4241567   0.20015417 
    5400    1631.8223    449.85963   -3.4257303   0.21082972 
    5500    1623.7752    435.15957   -3.4250027   0.20979003 
    5600    1529.7013    433.29141   -3.4175313   0.19763578 
    5700    1501.4748    448.37577   -3.4044873   0.19398896 
    5800    1562.6157    436.86736   -3.4006822    0.2018883 
    5900    1686.8797    387.46158   -3.4099657   0.21794307 
    6000    1646.4317    321.26601   -3.4157996   0.21271724 
    6100    1612.5763    250.26448   -3.4216942   0.20834315 
    6200    1611.7535    169.20991   -3.4297293   0.20823685 
    6300    1631.8215     83.21006   -3.4404408   0.21082961 
    6400    1570.4044    23.203913   -3.4412003   0.20289459 
    6500    1442.9131     11.49958   -3.4204451   0.18642285 
    6600    1486.0548   -10.337141   -3.4109833   0.19199671 
    6700    1671.7495   -69.407014   -3.4219526   0.21598827 
    6800     1671.731   -132.70644   -3.4283761   0.21598587 
    6900    1541.3638   -167.60387   -3.4233977   0.19914258 
    7000    1487.6189   -168.93558   -3.4111103   0.19219879 
    7100    1545.3727   -170.24782   -3.4033627   0.19966052 
    7200    1628.4314   -192.27003    -3.402558   0.21039161 
    7300    1632.7405   -223.30248   -3.4011227   0.21094834 
    7400     1511.822    -241.0914   -3.3890579   0.19532581 
    7500    1480.0139   -245.61166   -3.3730746   0.19121623 
    7600    1579.3848   -282.15519   -3.3712814   0.20405485 
    7700    1734.3927   -360.51746   -3.3861316    0.2240817 
    7800    1702.8806   -448.48536   -3.3999549   0.22001037 
    7900    1571.4114   -492.83834   -3.3984002   0.20302468 
    8000    1441.1965   -488.10684   -3.3808963   0.18620106 
    8100    1472.8939   -477.02448   -3.3667266   0.19029634 
    8200    1655.9883    -504.8236   -3.3742215   0.21395194 
    8300    1689.7699   -543.64657   -3.3816226   0.21831648 
    8400    1496.5469   -550.25625   -3.3692991   0.19335228 
    8500    1457.4127   -526.19569   -3.3536812   0.18829618 
    8600    1567.2544   -516.05865   -3.3500677   0.20248761 
    8700    1687.8531   -531.30892   -3.3558205   0.21806884 
    8800    1616.0187   -554.24179   -3.3558805    0.2087879 
    8900    1511.6127   -565.25436   -3.3492184   0.19529876 
    9000    1600.3151   -571.47182   -3.3505514   0.20675902 
    9100     1692.295    -579.6624   -3.3581512   0.21864273 
    9200     1565.019   -569.66149   -3.3534359    0.2021988 
    9300    1480.8996   -535.85888   -3.3404657   0.19133067 
    9400    1604.8131   -519.65737   -3.3425343   0.20734016 
    9500    1701.9138   -523.45283   -3.3529482   0.21988547 
    9600     1616.358   -513.19695   -3.3558526   0.20883175 
    9700     1551.115   -469.91975   -3.3541816   0.20040242 
    9800    1578.9096   -404.01373   -3.3532025   0.20399346 
    9900    1607.8675   -330.03629   -3.3490622   0.20773478 
   10000    1680.3669   -284.22159   -3.3558408   0.21710162 
Loop time of 70.8093 on 4 procs for 10000 steps with 2112 atoms

Performance: 1.220 ns/day, 19.669 hours/ns, 141.224 timesteps/s
99.6% CPU use with 4 MPI tasks x 1 OpenMP threads

MPI task timing breakdown:
Section |  min time  |  avg time  |  max time  |%varavg| %total
---------------------------------------------------------------
Pair    | 51.205     | 60.335     | 69.401     | 116.6 | 85.21
Neigh   | 0.043611   | 0.055136   | 0.066237   |   4.7 |  0.08
Comm    | 0.83214    | 9.9223     | 19.079     | 287.8 | 14.01
Output  | 0.14808    | 0.1484     | 0.14931    |   0.1 |  0.21
Modify  | 0.19782    | 0.23174    | 0.26568    |   5.0 |  0.33
Other   |            | 0.1165     |            |       |  0.16

Nlocal:        528.000 ave         528 max         528 min
Histogram: 4 0 0 0 0 0 0 0 0 0
Nghost:        1309.00 ave        1309 max        1309 min
Histogram: 4 0 0 0 0 0 0 0 0 0
Neighs:         0.00000 ave           0 max           0 min
Histogram: 4 0 0 0 0 0 0 0 0 0
FullNghs:      210808.0 ave      210827 max      210799 min
Histogram: 2 0 1 0 0 0 0 0 0 1

Total # of neighbors = 843230
Ave neighs/atom = 399.25663
Neighbor list builds = 9
Dangerous builds = 0
unfix 1
reset_timestep 0
variable te equal ${te}+100
variable te equal 1600+100
next a
jump SELF loop2
variable a loop 10
print "Temp: ${te}"
Temp: 1700
fix 1 1 nvt temp ${te} ${te} 0.01 fixedpoint 20.0 20.0 20.0
fix 1 1 nvt temp 1700 ${te} 0.01 fixedpoint 20.0 20.0 20.0
fix 1 1 nvt temp 1700 1700 0.01 fixedpoint 20.0 20.0 20.0
timestep ${dt}
timestep 0.0001
run 10000
Per MPI rank memory allocation (min/avg/max) = 5.359 | 5.359 | 5.359 Mbytes
Step Temp Press c_ape c_ake 
       0    1680.3669   -284.22159   -3.3558408   0.21710162 
     100    1800.5075   -270.01062   -3.3760869   0.23262366 
     200    1789.6506   -254.35517   -3.3883239   0.23122096 
     300    1742.6657   -233.88864   -3.3960626   0.22515056 
     400    1742.2156   -219.80081   -3.4082403   0.22509241 
     500     1723.934   -200.47619   -3.4180939   0.22273045 
     600    1658.6712   -163.29513    -3.417911   0.21429857 
     700    1667.1902   -117.19324   -3.4165461   0.21539921 
     800    1723.9241   -64.055353    -3.415921   0.22272917 
     900      1650.42    11.293988   -3.4033074   0.21323252 
    1000    1586.2933    109.86803   -3.3836455   0.20494742 
    1100    1652.2735    185.49489   -3.3792931   0.21347199 
    1200    1812.7241    223.64868   -3.3926766   0.23420204 
    1300    1773.1979    249.14035   -3.4020263   0.22909529 
    1400    1656.0848    298.54053   -3.3986275   0.21396441 
    1500    1616.4946    363.12824   -3.3910155   0.20884939 
    1600    1677.8747    425.29915   -3.3858527   0.21677963 
    1700    1741.1461     472.1232   -3.3858747   0.22495424 
    1800    1749.5196     501.5056   -3.3902124   0.22603608 
    1900    1703.6674    512.46211   -3.3944984   0.22011203 
    2000    1756.5378    496.07477   -3.4091189   0.22694282 
    2100    1762.9703    467.76488   -3.4221101   0.22777389 
    2200    1729.6787    448.11927   -3.4289034   0.22347265 
    2300    1680.8746    442.96321   -3.4313553   0.21716722 
    2400    1631.8264    458.86842   -3.4254869   0.21083024 
    2500    1705.6403    472.31531   -3.4246053   0.22036693 
    2600    1760.6922    465.31306   -3.4303884   0.22747957 
    2700    1685.4157    459.10788   -3.4300122   0.21775393 
    2800    1622.4306    470.35507   -3.4219347   0.20961631 
    2900    1623.3314    489.87067   -3.4111647    0.2097327 
    3000    1667.6172    495.46913   -3.4060624   0.21545437 
    3100    1753.8612    481.36352   -3.4099558   0.22659701 
    3200    1726.2296    457.20524   -3.4118862   0.22302704 
    3300    1701.0594    427.55319   -3.4172611   0.21977507 
    3400    1640.1025    413.68561    -3.412801   0.21189951 
    3500    1609.3485    414.50436   -3.3991871   0.20792613 
    3600    1681.4015    390.55315   -3.3978473    0.2172353 
    3700    1746.3518    359.94253   -3.4008018   0.22562681 
    3800    1581.3566     365.1626   -3.3810263    0.2043096 
    3900    1537.0868    384.78881   -3.3609654   0.19858999 
    4000    1729.5997    351.31778   -3.3700276   0.22346246 
    4100    1916.7723    261.89481   -3.3986535   0.24764495 
    4200    1863.4163     171.4768   -3.4182836   0.24075141 
    4300    1694.4308    120.75074   -3.4183181   0.21891866 
    4400    1574.3072    99.617263   -3.4085364   0.20339883 
    4500    1639.8826    89.996296   -3.4009219    0.2118711 
    4600    1726.7134    67.907176   -3.3973953   0.22308954 
    4700    1735.1829    32.042796   -3.3935618   0.22418379 
    4800     1691.995   -17.863129   -3.3911353   0.21860397 
    4900    1724.1804   -86.745941   -3.3986439   0.22276229 
    5000    1734.3617   -166.82328    -3.409038    0.2240777 
    5100    1627.1848   -222.65925   -3.4046879   0.21023055 
    5200    1582.0513   -245.96151   -3.3906013   0.20439935 
    5300    1655.8821   -273.57436   -3.3846757   0.21393822 
    5400    1753.5032    -313.8808   -3.3870162   0.22655076 
    5500    1716.0334   -347.60173   -3.3850414    0.2217097 
    5600    1599.1022   -357.60617   -3.3743405   0.20660231 
    5700    1587.8067   -346.80565   -3.3598254   0.20514295 
    5800    1674.1064   -355.89291   -3.3563502   0.21629278 
    5900    1800.2132   -389.53406   -3.3656263   0.23258564 
    6000    1736.6541   -423.88215   -3.3703276   0.22437387 
    6100    1624.7222   -429.59208   -3.3642361   0.20991238 
    6200    1636.7146   -413.68516   -3.3571897    0.2114618 
    6300    1694.3504   -396.28591   -3.3528854   0.21890828 
    6400    1744.6868   -392.20344   -3.3530415   0.22541168 
    6500    1751.1362   -408.66751   -3.3592095   0.22624494 
    6600    1691.1704   -422.04512   -3.3618921   0.21849742 
    6700    1642.2967   -414.64986   -3.3576093   0.21218299 
    6800    1678.6815   -395.14276   -3.3529286   0.21688387 
    6900     1704.523   -379.46997   -3.3499018   0.22022257 
    7000     1729.735     -368.528   -3.3509196   0.22347994 
    7100     1689.448   -357.49758   -3.3508006    0.2182749 
    7200    1641.3435   -343.53123   -3.3487112   0.21205985 
    7300    1715.0473   -327.17656   -3.3487546    0.2215823 
    7400    1720.7303   -320.97141   -3.3473951   0.22231654 
    7500    1703.9793   -324.89314   -3.3485147   0.22015232 
    7600    1702.7281   -335.21708   -3.3534061   0.21999067 
    7700      1705.31   -347.83748   -3.3606299   0.22032424 
    7800    1711.1178   -354.53777    -3.367153   0.22107461 
    7900    1704.0596   -347.27936    -3.368789    0.2201627 
    8000    1691.2253   -331.55611   -3.3685154   0.21850452 
    8100    1706.9385     -314.043   -3.3701992   0.22053465 
    8200    1715.3778   -296.79967   -3.3725313     0.221625 
    8300    1675.2607   -281.38321   -3.3747428   0.21644192 
    8400     1671.437   -257.77682    -3.376423    0.2159479 
    8500    1717.7351   -222.87024   -3.3766044   0.22192956 
    8600    1743.8326    -184.0922   -3.3747692   0.22530133 
    8700    1666.6454    -155.7822   -3.3720543   0.21532882 
[...]
    6000      1930.96   -148.63205   -3.2909587   0.24947799 
    6100    1869.3367   -142.07343   -3.2930931   0.24151632 
    6200      1896.99   -131.66035    -3.296638    0.2450891 
    6300    1934.3967   -120.93189    -3.301218     0.249922 
    6400    1856.9326   -109.33806    -3.301821   0.23991373 
    6500    1834.4149   -84.523859   -3.3006253   0.23700447 
    6600    1879.4148   -50.212063    -3.299519   0.24281841 
    6700    1907.8243   -16.668457   -3.2977587   0.24648888 
    6800    1934.7096    6.1186564   -3.2994224   0.24996244 
    6900    1914.7456    11.556768   -3.3055907    0.2473831 
    7000    1904.6224    16.611305   -3.3121254    0.2460752 
    7100    1899.8172    32.348268   -3.3143281   0.24545437 
    7200    1877.2548    52.928788   -3.3137369   0.24253934 
    7300     1896.484    77.149264   -3.3127998   0.24502373 
    7400    1949.6818    107.56061   -3.3103882   0.25189683 
    7500    1907.2392    133.12829   -3.3064695   0.24641328 
    7600    1846.1334    150.85223   -3.3051664   0.23851848 
    7700    1855.5882    164.56063   -3.3077212   0.23974003 
    7800    1945.3024    188.01201   -3.3094069   0.25133101 
    7900    1919.3172    211.03956   -3.3063018   0.24797375 
    8000    1874.6527    222.39432   -3.3065509   0.24220314 
    8100    1900.2364    221.96447   -3.3132565   0.24550853 
    8200    1857.2999    217.84729   -3.3173668   0.23996118 
    8300    1835.5267    226.68876   -3.3166477   0.23714811 
    8400    1897.4539    245.58179   -3.3153032   0.24514904 
    8500    1915.3422    256.89771   -3.3149941   0.24746019 
    8600    1916.4558    260.19937   -3.3174249   0.24760406 
    8700    1869.6921     260.9506   -3.3187509   0.24156224 
    8800    1851.2063    267.36612   -3.3184543   0.23917389 
    8900    1951.6888    286.52832   -3.3176953   0.25215613 
    9000    1912.2592    298.71505   -3.3129464   0.24706186 
    9100    1869.1611    301.41366   -3.3103348   0.24149364 
    9200    1921.8123    295.82805   -3.3133184   0.24829612 
    9300    1966.0874    288.42879   -3.3150792   0.25401641 
    9400    1861.7406    273.44589   -3.3126503   0.24053492 
    9500    1853.0823    261.78129   -3.3120016   0.23941628 
    9600    1928.5379    248.14435   -3.3146598   0.24916506 
    9700    1939.9625    225.14993   -3.3176761    0.2506411 
    9800    1889.4345    200.99784   -3.3177705   0.24411294 
    9900    1880.4884    182.69933    -3.316834   0.24295711 
   10000    1907.4721    165.15624   -3.3172661   0.24644338 
Loop time of 42.8922 on 4 procs for 10000 steps with 2112 atoms

Performance: 2.014 ns/day, 11.914 hours/ns, 233.143 timesteps/s
99.3% CPU use with 4 MPI tasks x 1 OpenMP threads

MPI task timing breakdown:
Section |  min time  |  avg time  |  max time  |%varavg| %total
---------------------------------------------------------------
Pair    | 30.769     | 36.124     | 41.541     |  87.5 | 84.22
Neigh   | 0.057153   | 0.070031   | 0.082754   |   4.8 |  0.16
Comm    | 0.79871    | 6.2051     | 11.549     | 211.4 | 14.47
Output  | 0.16919    | 0.16959    | 0.17065    |   0.1 |  0.40
Modify  | 0.18355    | 0.21498    | 0.24775    |   4.9 |  0.50
Other   |            | 0.1086     |            |       |  0.25

Nlocal:        528.000 ave         529 max         526 min
Histogram: 1 0 0 0 0 0 1 0 0 2
Nghost:        1145.50 ave        1149 max        1143 min
Histogram: 1 1 0 0 0 1 0 0 0 1
Neighs:         0.00000 ave           0 max           0 min
Histogram: 4 0 0 0 0 0 0 0 0 0
FullNghs:      153381.0 ave      153809 max      152774 min
Histogram: 1 0 0 0 0 0 1 1 0 1

Total # of neighbors = 613524
Ave neighs/atom = 290.49432
Neighbor list builds = 14
Dangerous builds = 0
unfix 1
reset_timestep 0
variable te equal ${te}+100
variable te equal 1900+100
next a
jump SELF loop2
variable a loop 10
print "Temp: ${te}"
Temp: 2000
fix 1 1 nvt temp ${te} ${te} 0.01 fixedpoint 20.0 20.0 20.0
fix 1 1 nvt temp 2000 ${te} 0.01 fixedpoint 20.0 20.0 20.0
fix 1 1 nvt temp 2000 2000 0.01 fixedpoint 20.0 20.0 20.0
timestep ${dt}
timestep 0.0001
run 10000
Per MPI rank memory allocation (min/avg/max) = 4.967 | 4.967 | 4.967 Mbytes
Step Temp Press c_ape c_ake 
       0    1907.4721    165.15624   -3.3172661   0.24644338 
     100    1970.3345    154.01988   -3.3161417   0.25456514 
     200    1991.3435    142.87921   -3.3124369   0.25727947 
     300    2011.8776    125.29752   -3.3110985   0.25993246 
     400    2021.0334    103.18916   -3.3108196   0.26111538 
     500    1960.6763    80.344872   -3.3075042    0.2533173 
     600    1936.5941      59.3994   -3.3043819    0.2502059 
     700     2031.311    42.511909   -3.3045687   0.26244324 
     800    2010.7628    21.811739   -3.3018379   0.25978843 
     900    1951.4022    4.4586264   -3.2963104    0.2521191 
    1000    2014.1713   -9.4521754   -3.2942358    0.2602288 
    1100    2042.9867   -31.482363    -3.293843   0.26395171 
    1200    1983.2227   -56.911448   -3.2909237   0.25623028 
    1300    1966.9587   -80.414674   -3.2887384   0.25412898 
    1400    2058.9458   -102.92187   -3.2912282   0.26601361 
    1500    2053.4376   -127.90908   -3.2917776   0.26530197 
    1600    1917.2501   -151.59161   -3.2866921   0.24770668 
    1700    1954.6037   -160.27801   -3.2825534   0.25253273 
    1800    1997.8929   -166.57143   -3.2778979   0.25812565 
    1900    2005.4601   -172.17503   -3.2726044   0.25910333 
    2000    2019.0758   -180.81509   -3.2701188   0.26086246 
    2100    2010.3541   -192.71268   -3.2683023   0.25973563 
    2200    1969.7425   -207.98368   -3.2666919   0.25448865 
    2300    1957.5417   -221.33236    -3.265417   0.25291231 
    2400    2025.9902   -225.11092   -3.2641358   0.26175579 
    2500    2017.6595   -227.86163   -3.2605814   0.26067948 
    2600    1967.5277   -229.43969   -3.2559173    0.2542025 
    2700    2012.6387   -225.66987   -3.2534412   0.26003079 
    2800    2050.3878   -223.21873   -3.2508645   0.26490793 
    2900    1999.5411   -233.05542   -3.2497458    0.2583386 
    3000      1985.86   -248.95065   -3.2528191   0.25657101 
    3100    2005.6964    -264.3465   -3.2573956   0.25913385 
    3200    1956.4596   -283.72316   -3.2618447   0.25277251 
    3300    1958.4034   -293.82738   -3.2658625   0.25302365 
    3400    2019.1698   -289.23382    -3.267261    0.2608746 
    3500    2023.7727   -277.99004    -3.264539   0.26146929 
    3600    1971.4614   -270.73708   -3.2618909   0.25471072 
    3700    1938.9672   -272.31568   -3.2639997   0.25051251 
    3800    2027.8334   -269.63811   -3.2694439   0.26199393 
    3900    2056.2325   -261.86781   -3.2712385   0.26566306 
    4000    1945.5822   -251.71967   -3.2675945   0.25136717 
    4100    1946.0203   -231.37108   -3.2653458   0.25142377 
    4200    2000.4003   -210.33681   -3.2656324   0.25844961 
    4300    2017.5263   -188.23402   -3.2648432   0.26066226 
    4400    1989.3495   -163.29785   -3.2622531   0.25702185 
    4500    1977.8473   -139.86186   -3.2610487   0.25553578 
    4600    2045.3829    -118.1755    -3.263425   0.26426131 
    4700     2037.932   -100.79811   -3.2641387   0.26329865 
    4800    1966.9254   -88.315428   -3.2646423   0.25412468 
    4900    2001.5763   -73.445816   -3.2693669   0.25860154 
    5000    2027.9636   -57.595225    -3.273468   0.26201076 
    5100    1940.2629   -44.765932   -3.2740417   0.25067991 
    5200    1944.5196   -26.247166   -3.2760633   0.25122988 
    5300    2029.3904   -8.5644434   -3.2820353   0.26219509 
    5400    2030.9076    6.1100375   -3.2855833   0.26239112 
    5500    1977.1173    22.453238   -3.2862703   0.25544146 
    5600      1985.17    43.375773   -3.2874361   0.25648186 
    5700    2015.6513     63.25492   -3.2894449   0.26042002 
    5800    2010.3223      82.0343   -3.2902157   0.25973151 
    5900    1991.4763    104.40007   -3.2893394   0.25729663 
    6000    1994.7496    128.76095   -3.2890219   0.25771954 
    6100    2005.9775    152.70198   -3.2890889   0.25917017 
    6200    2001.8829    177.25103    -3.287886   0.25864115 
    6300    1988.8321    204.89823   -3.2843664   0.25695501 
    6400      2023.47    232.99524   -3.2824329   0.26143019 
    6500    2041.8635    252.32726   -3.2828855   0.26380661 
    6600     1960.952    262.25172   -3.2808306   0.25335292 
    6700    1963.4739    267.19249   -3.2822915   0.25367875 
    6800    2082.0342    268.01978   -3.2888647   0.26899662 
    6900    2031.0999    258.55196   -3.2918278   0.26241596 
    7000    1965.0269    253.54879   -3.2919407    0.2538794 
    7100    2004.9447    253.59989    -3.294185   0.25903673 
    7200    2014.8821    258.38564   -3.2920235   0.26032063 
    7300    1998.5253    261.12503   -3.2889024   0.25820735 
    7400    2028.8778    253.28933   -3.2916914   0.26212886 
    7500    1997.4954    236.92759   -3.2942412   0.25807429 
    7600    1948.9196    222.57379   -3.2947101   0.25179835 
    7700    2000.1274     216.7535   -3.2962788   0.25841434 
    7800    2024.7391    218.64795   -3.2936486   0.26159414 
    7900    1992.6127    220.83021   -3.2892053   0.25744345 
    8000    2003.0798    219.71091   -3.2885051   0.25879579 
    8100    2019.0486    219.78281   -3.2867691   0.26085894 
    8200    2007.1644    214.70589   -3.2850924   0.25932351 
    8300    2003.2991    200.49239   -3.2873651   0.25882413 
    8400    1981.1796     181.9045   -3.2901204   0.25596631 
    8500    1963.0576    166.13863   -3.2916487   0.25362497 
    8600    1999.3018    160.77492   -3.2907708   0.25830768 
    8700    2038.4553    161.23632   -3.2865187   0.26336626 
    8800    2004.2719    147.90791    -3.283323   0.25894981 
    8900    1982.9272    120.68889   -3.2848592   0.25619209 
    9000     1929.563    85.740556   -3.2868186    0.2492975 
    9100    1953.6688    57.259601   -3.2888993   0.25241194 
    9200    2033.2169    39.034908   -3.2887449   0.26268947 
    9300    1998.4031     18.50388   -3.2845575   0.25819157 
    9400    1983.0239   -4.2226173   -3.2828273   0.25620459 
    9500    2022.9225   -20.417303   -3.2808986   0.26135945 
    9600    2040.0552   -26.897798   -3.2740545   0.26357297 
    9700    1988.2633   -41.537944   -3.2680912   0.25688152 
    9800    2003.2742   -66.573951   -3.2697615   0.25882091 
    9900    2042.0477   -93.464172   -3.2732008    0.2638304 
   10000     1986.926   -121.11466   -3.2734603   0.25670874 
Loop time of 42.6405 on 4 procs for 10000 steps with 2112 atoms

Performance: 2.026 ns/day, 11.845 hours/ns, 234.519 timesteps/s
99.3% CPU use with 4 MPI tasks x 1 OpenMP threads

MPI task timing breakdown:
Section |  min time  |  avg time  |  max time  |%varavg| %total
---------------------------------------------------------------
Pair    | 30.435     | 35.824     | 41.287     |  88.5 | 84.01
Neigh   | 0.059388   | 0.07394    | 0.088511   |   5.3 |  0.17
Comm    | 0.76598    | 6.2208     | 11.6       | 212.6 | 14.59
Output  | 0.20014    | 0.20052    | 0.20156    |   0.1 |  0.47
Modify  | 0.18186    | 0.21348    | 0.24628    |   4.9 |  0.50
Other   |            | 0.1082     |            |       |  0.25

Nlocal:        528.000 ave         532 max         525 min
Histogram: 1 1 0 0 0 1 0 0 0 1
Nghost:        1140.25 ave        1150 max        1135 min
Histogram: 1 1 1 0 0 0 0 0 0 1
Neighs:         0.00000 ave           0 max           0 min
Histogram: 4 0 0 0 0 0 0 0 0 0
FullNghs:      149022.0 ave      149648 max      148699 min
Histogram: 1 1 1 0 0 0 0 0 0 1

Total # of neighbors = 596086
Ave neighs/atom = 282.23769
Neighbor list builds = 15
Dangerous builds = 0
unfix 1
reset_timestep 0
variable te equal ${te}+100
variable te equal 2000+100
next a
jump SELF loop2
variable a loop 10
print "Temp: ${te}"
Temp: 2100
fix 1 1 nvt temp ${te} ${te} 0.01 fixedpoint 20.0 20.0 20.0
fix 1 1 nvt temp 2100 ${te} 0.01 fixedpoint 20.0 20.0 20.0
fix 1 1 nvt temp 2100 2100 0.01 fixedpoint 20.0 20.0 20.0
timestep ${dt}
timestep 0.0001
run 10000
Per MPI rank memory allocation (min/avg/max) = 4.967 | 4.967 | 4.967 Mbytes
Step Temp Press c_ape c_ake 
       0     1986.926   -121.11466   -3.2734603   0.25670874 
     100    2048.5777   -128.24798   -3.2706352   0.26467407 
     200    2060.7099   -129.89924   -3.2636099   0.26624153 
     300     2072.433   -127.33104   -3.2547073   0.26775615 
     400    2099.0622   -131.28831   -3.2488117   0.27119661 
     500    2127.3254   -145.42716   -3.2475178   0.27484819 
     600    2099.6277   -162.16942   -3.2454893   0.27126968 
     700    2043.5512   -179.86011   -3.2432176   0.26402465 
     800    2097.7838   -195.50064   -3.2454353   0.27103144 
     900    2164.6499   -205.52915   -3.2463815   0.27967048 
    1000    2071.6659   -215.08959   -3.2406753   0.26765705 
    1100    2031.7808   -220.97394   -3.2356064   0.26250394 
    1200    2130.1883   -226.32014   -3.2363667   0.27521808 
    1300    2136.4795   -242.67345   -3.2393643    0.2760309 
    1400    2074.1138   -255.46242   -3.2395896   0.26797331 
    1500    2046.5704   -255.50561   -3.2367223   0.26441473 
    1600    2118.9469   -246.51637   -3.2355319    0.2737657 
    1700    2129.5871   -241.81953   -3.2352206    0.2751404 
    1800    2090.8273   -236.20397   -3.2341648   0.27013267 
    1900    2077.0837   -226.93562      -3.2335   0.26835701 
    2000     2143.558    -211.6937    -3.233247   0.27694543 
    2100    2176.9962   -196.03934   -3.2304114    0.2812656 
    2200    2097.7725   -194.69457   -3.2289149   0.27102999 
    2300    2093.4199   -193.63818    -3.231213   0.27046764 
    2400    2095.2017   -185.94055   -3.2313087   0.27069784 
    2500    2101.7579   -172.52961   -3.2302194    0.2715449 
    2600    2163.5876   -155.20502   -3.2304061   0.27953324 
    2700    2155.8983   -146.35097   -3.2307771   0.27853978 
    2800    2085.7412   -150.52452   -3.2334555   0.26947555 
    2900    2104.5348   -150.90877   -3.2384895   0.27190367 
    3000    2096.6084   -144.16698   -3.2404307   0.27087959 
    3100    2047.6427   -131.59706   -3.2391055   0.26455327 
    3200    2091.7457   -117.37602   -3.2419248   0.27025134 
    3300    2189.6532   -102.58133    -3.247232   0.28290088 
    3400    2102.3487   -93.112432   -3.2466688   0.27162123 
    3500    2053.6723   -73.890216   -3.2436099   0.26533229 
    3600    2091.9527   -48.432559   -3.2417169   0.27027807 
    3700     2125.672   -24.549711   -3.2404273   0.27463457 
    3800    2122.5993   -10.527033   -3.2417741   0.27423758 
    3900    2088.6652   -5.9632891   -3.2448801   0.26985334 
    4000     2058.298   -5.7591154   -3.2492126   0.26592993 
    4100    1989.7231    -12.05032    -3.255099   0.25707012 
    4200     2058.595   0.15373492   -3.2595934    0.2659683 
    4300    2117.9982    22.951883    -3.259924   0.27364313 
    4400    2100.7427    46.225336    -3.257302   0.27141374 
    4500     2089.244    67.421959   -3.2559758   0.26992811 
    4600    2131.5483    89.173211   -3.2567765   0.27539378 
    4700    2157.7292    108.56018   -3.2574945   0.27877634 
    4800    2087.4109    113.44178   -3.2591797   0.26969128 
    4900    2074.3923     119.5134   -3.2616877    0.2680093 
    5000    2093.1622    135.46559   -3.2612034   0.27043435 
    5100    2119.2886    162.46209     -3.25656   0.27380984 
    5200    2166.9883    191.43085   -3.2521195    0.2799726 
    5300    2122.8146    200.78497   -3.2516795    0.2742654 
    5400    2060.2044     194.9776    -3.255571   0.26617623 
    5500    2116.4401    195.86437   -3.2608974   0.27344182 
    5600     2108.932    202.42971   -3.2610619   0.27247179 
    5700    2058.4112    210.46563    -3.258737   0.26594455 
    5800    2110.9292    216.07379   -3.2615804   0.27272982 
    5900    2194.2195     217.8978    -3.266528   0.28349083 
    6000    2098.6038    208.12358   -3.2676403    0.2711374 
    6100     2068.714    207.61515    -3.266687   0.26727566 
    6200    2096.4274    212.68887   -3.2650553    0.2708562 
    6300    2133.0991    217.21817   -3.2633553   0.27559414 
    6400    2123.1326    210.52749   -3.2634665   0.27430648 
    6500    2051.7705     185.7754   -3.2674106   0.26508658 
    6600    2082.2833    166.12545   -3.2725032    0.2690288 
    6700    2097.3516    157.45885   -3.2714173   0.27097561 
    6800    2080.0014    158.09969   -3.2644425   0.26873398 
    6900     2136.833    164.41184   -3.2580994   0.27607657 
    7000    2103.3996    158.17448   -3.2525046     0.271757 
    7100    2083.6113    144.10797   -3.2500346   0.26920038 
    7200    2128.2934    124.14044   -3.2520405   0.27497326 
    7300    2149.1863    97.564857   -3.2558331   0.27767259 
    7400    2073.8046    65.467363   -3.2593102   0.26793336 
    7500    2069.4224    50.279471   -3.2598323   0.26736719 
    7600    2101.6325    46.506771   -3.2575297    0.2715287 
    7700    2130.9555    42.192676   -3.2553282    0.2753172 
    7800    2097.4543    31.602568   -3.2524372   0.27098887 
    7900    2009.7019     8.373498   -3.2522601   0.25965136 
    8000    2078.1615   -12.703232   -3.2582013   0.26849627 
    8100    2151.4333    -23.57305    -3.260633   0.27796291 
    8200    2073.3849   -26.183961   -3.2541961   0.26787913 
    8300    2054.6873   -23.916278   -3.2489379   0.26546342 
    8400    2162.9508   -25.164301   -3.2507158   0.27945096 
    8500    2133.9113   -41.425261   -3.2521279   0.27569908 
    8600    2066.0817   -59.334448   -3.2515669   0.26693557 
    8700     2078.198   -74.263062   -3.2525979   0.26850098 
    8800    2153.2609   -86.148594   -3.2554991   0.27819903 
    8900    2117.3397   -98.580137   -3.2548607   0.27355805 
    9000    2013.2341   -111.47003   -3.2514789   0.26010772 
    9100    2068.6834   -118.15905   -3.2513157   0.26727171 
    9200    2112.3657   -127.39551   -3.2510965   0.27291541 
    9300    2101.4034   -135.09044   -3.2484489   0.27149909 
    9400    2092.6842   -141.28308   -3.2461209   0.27037259 
    9500    2138.9966   -142.59714   -3.2446626    0.2763561 
    9600    2139.1965   -142.24392   -3.2410039   0.27638193 
    9700    2050.5281   -147.65355   -3.2362084   0.26492606 
    9800    2033.5584   -151.65053   -3.2335874    0.2627336 
    9900    2135.6159   -149.40161   -3.2335155   0.27591931 
   10000    2117.5271   -155.10447   -3.2325384   0.27358226 
Loop time of 42.3439 on 4 procs for 10000 steps with 2112 atoms

Performance: 2.040 ns/day, 11.762 hours/ns, 236.161 timesteps/s
99.4% CPU use with 4 MPI tasks x 1 OpenMP threads

MPI task timing breakdown:
Section |  min time  |  avg time  |  max time  |%varavg| %total
---------------------------------------------------------------
Pair    | 30.332     | 35.57      | 41.055     |  87.8 | 84.00
Neigh   | 0.05917    | 0.073723   | 0.088581   |   5.3 |  0.17
Comm    | 0.7293     | 6.2064     | 11.472     | 210.4 | 14.66
Output  | 0.17209    | 0.17248    | 0.17348    |   0.1 |  0.41
Modify  | 0.18161    | 0.21343    | 0.24537    |   4.9 |  0.50
Other   |            | 0.108      |            |       |  0.26

Nlocal:        528.000 ave         534 max         525 min
Histogram: 2 0 0 1 0 0 0 0 0 1
Nghost:        1142.50 ave        1153 max        1127 min
Histogram: 1 0 0 0 0 1 0 0 1 1
Neighs:         0.00000 ave           0 max           0 min
Histogram: 4 0 0 0 0 0 0 0 0 0
FullNghs:      146764.0 ave      147395 max      145863 min
Histogram: 1 0 0 0 1 0 0 0 1 1

Total # of neighbors = 587054
Ave neighs/atom = 277.96117
Neighbor list builds = 15
Dangerous builds = 0
unfix 1
reset_timestep 0
variable te equal ${te}+100
variable te equal 2100+100
next a
jump SELF loop2
write_data Ni_$c.data
write_data Ni_MedCutoff.data
System init for write_data ...
next b
next c
clear
OMP_NUM_THREADS environment is not set. Defaulting to 1 thread. (src/comm.cpp:94)
  using 1 OpenMP thread(s) per MPI task
jump SELF loop1
print "Done!"
Done!
Total wall time: 0:35:18
