LAMMPS data file via write_data, version 24 Dec 2020, timestep = 0

2112 atoms
1 atom types

0 140.952 xlo xhi
0 140.952 ylo yhi
0 140.952 zlo zhi

Masses

1 58.6934

Atoms # atomic

1061 1 69.94657290792141 65.39665220690193 52.62615063102557 0 0 0
50 1 64.15646163342241 67.52210419482046 54.74609744745733 0 0 0
2 1 66.39614865449565 69.23385685272738 53.34820360835076 0 0 0
14 1 68.25138693794639 67.78785128087095 52.01989915725888 0 0 0
19 1 69.4988775789246 70.0202857609166 53.031437876472715 0 0 0
7 1 62.68279377355072 72.30769267851547 53.4258683908416 0 0 0
10 1 65.76237061652212 71.81420995949615 51.879874411353825 0 0 0
25 1 66.39916047569473 74.70751819256158 52.84022021915733 0 0 0
18 1 68.1688833642985 72.20230531667923 52.98041142596845 0 0 0
22 1 69.31577982183894 74.52983507562288 53.072074398745485 0 0 0
31 1 65.43167970873665 59.24513016964405 58.541934955931865 0 0 0
1087 1 67.92889870321821 58.198325095186405 58.98180372878952 0 0 0
36 1 62.42783412580394 60.009708738969955 58.33439737259155 0 0 0
49 1 62.64141804529948 64.9000455646817 58.17417553911698 0 0 0
35 1 62.05239059823334 62.60590640399842 57.642006939144075 0 0 0
37 1 63.86009866349153 61.64057680467944 55.9657980666848 0 0 0
39 1 64.69458339797136 62.02860308089576 58.256345554175674 0 0 0
41 1 64.71450748764414 63.99639840889121 57.25625557591632 0 0 0
47 1 63.53121541153075 64.44671083674781 55.01079488324379 0 0 0
38 1 65.58471088954802 60.146453296172744 56.167705215283874 0 0 0
40 1 66.84519009475889 61.12093697623805 59.02596403465057 0 0 0
42 1 68.08298377943245 60.20773034506539 57.3380756144992 0 0 0
1580 1 69.68662049726986 88.04370585347169 68.66689204441772 0 0 0
1 1 66.67480994457314 62.76049111999722 56.81266483137828 0 0 0
43 1 68.84686005827635 62.19363115163339 58.98143505801645 0 0 0
45 1 70.25895660007642 61.8800883902498 57.05117315610669 0 0 0
53 1 66.8057807980835 63.641513432791875 59.22207772213518 0 0 0
55 1 68.68868932456887 64.03436581609115 57.2760494448706 0 0 0
57 1 70.32411101758733 64.250023014261 58.93954140843197 0 0 0
3 1 68.1925863808961 62.093278981945936 54.87765495493071 0 0 0
11 1 65.91194086699933 63.641935310806964 54.70915492585665 0 0 0
528 1 67.20126205577316 88.46290481669621 66.92927729854058 0 0 0
44 1 69.95752417134777 59.94794898342358 59.27219150485105 0 0 0
189 1 58.64325411980858 67.99064799316463 58.05406621262638 0 0 0
59 1 59.633627660214835 70.74533889661572 58.40525517443 0 0 0
48 1 61.86747197182089 67.7345834383451 56.14932107531842 0 0 0
74 1 60.83168774647834 70.05393606699397 54.372872950860796 0 0 0
46 1 60.88662738030172 66.42904529744968 58.14949115352103 0 0 0
51 1 64.40603168945259 66.25281143082135 56.641042733873896 0 0 0
63 1 61.51141430136052 68.97648967515852 58.45581765756507 0 0 0
64 1 63.25853243180284 67.41923397981678 58.481782855182054 0 0 0
65 1 63.34803698500472 69.81112752272458 56.82596656840245 0 0 0
8 1 63.67700737672142 70.14542578421434 54.2242299136845 0 0 0
52 1 65.35971829191458 65.76553715647718 58.6414391926149 0 0 0
66 1 65.70841945823973 68.16679327610129 56.56669119388515 0 0 0
67 1 64.9504645188962 69.75795184093943 58.676988099532 0 0 0
4 1 68.54537506759542 64.90185739991713 54.8133186860946 0 0 0
9 1 66.43941951548315 66.6199238159986 54.69591599632371 0 0 0
12 1 67.90720885163284 70.05872012461955 54.81737819043664 0 0 0
54 1 66.73511319174501 65.44541512092049 56.8461531197942 0 0 0
56 1 68.51235846034592 65.8008976492398 58.96099045715843 0 0 0
58 1 69.51330968571222 66.25941978256932 56.79105682612196 0 0 0
68 1 66.82953791602846 67.62682117726867 58.73074193562635 0 0 0
69 1 65.82488841258795 70.4098219481298 55.9477557005073 0 0 0
70 1 67.98905357140215 68.22270536312517 56.589136050036736 0 0 0
71 1 67.69141271187921 70.06660541608169 58.118214836739924 0 0 0
72 1 69.42562044225232 68.22989762819454 58.26791639097365 0 0 0
73 1 69.7929295043394 69.92894214735078 56.43521834003845 0 0 0
1059 1 69.56591481125075 67.83325238793225 54.97509256577739 0 0 0
75 1 58.72439790944187 74.55633284544733 58.619211940019824 0 0 0
88 1 59.09071941295952 72.06643084086066 55.53924088168279 0 0 0
89 1 57.12612575979603 70.9945213637489 57.472883364256326 0 0 0
61 1 61.166902128501576 70.9667382530507 56.57692740726789 0 0 0
76 1 60.78023493084616 72.82600564794063 58.5479154406743 0 0 0
77 1 63.20313139666165 71.50425303491254 58.828078553507595 0 0 0
78 1 61.850642602630366 73.5410336549067 56.25076278124875 0 0 0
79 1 63.60764538808665 72.13330511513209 56.279043802508504 0 0 0
80 1 64.09139037625737 73.72255729571903 58.00504874290915 0 0 0
92 1 64.01138788205535 75.59923477075148 56.318282061579026 0 0 0
90 1 62.429502901659504 75.54548340615284 58.29388628954337 0 0 0
15 1 64.62976637060318 74.33418377223211 54.57410853482001 0 0 0
21 1 69.74795430226227 71.88358695513625 54.75839509830793 0 0 0
17 1 65.95760029160427 72.04316974843444 54.20173548636723 0 0 0
20 1 67.7805187417474 73.77097825978989 54.94988412452267 0 0 0
81 1 65.78461908190074 71.98714533457078 58.00696924429799 0 0 0
82 1 65.97823487805782 74.01243439618484 56.37573968440948 0 0 0
83 1 67.77295415259114 71.89320816326527 56.5299503276817 0 0 0
84 1 67.82144294187437 73.30361672810258 58.40774483650859 0 0 0
85 1 69.60202480018636 71.73525748722929 58.51247566558742 0 0 0
86 1 69.42411244940621 73.76483247008633 56.65516857860242 0 0 0
94 1 65.86378270768235 75.37063582434604 58.4153757394287 0 0 0
98 1 69.4635094463359 75.48518260868701 58.79312678581278 0 0 0
96 1 67.64860817306474 75.38900084064522 56.91124749452226 0 0 0
91 1 60.114185716270626 76.8582694706084 58.91957441564036 0 0 0
23 1 62.779847278545795 77.824640283818 56.29800027301979 0 0 0
93 1 64.11831494219 77.18061114946725 58.7071465936825 0 0 0
100 1 62.050186489919945 78.82560233026456 58.6722390180909 0 0 0
101 1 64.2650144583516 79.06171251629604 57.54987272689202 0 0 0
102 1 63.15432819162053 81.03336304611459 59.158267548004055 0 0 0
26 1 69.39167174195123 76.14890799202527 54.71753445860359 0 0 0
24 1 65.2723707244178 79.38750340849954 55.25562252659562 0 0 0
16 1 66.3531389495557 76.45519415875414 54.80248137614724 0 0 0
27 1 67.96228593355704 78.2839328653559 54.6300768786364 0 0 0
95 1 66.3348781411552 77.16174959009537 57.00773073988516 0 0 0
97 1 67.88309674681264 77.37954024819528 58.999877021017205 0 0 0
105 1 68.1587423772903 79.32937868236665 57.1981361781838 0 0 0
30 1 69.88465307815564 79.80941423134924 55.353786445921166 0 0 0
99 1 69.51451881742423 77.43569772234056 56.86305576685792 0 0 0
29 1 67.58761012789573 81.14195251874376 55.4818224340914 0 0 0
107 1 69.41601990141824 79.50203689029404 59.24396708762524 0 0 0
103 1 65.98565585487886 79.20692699307838 58.82808754246186 0 0 0
106 1 67.70690558540068 81.3329366634572 59.44791391219706 0 0 0
104 1 65.65333256004884 81.1112923624108 57.17075915159995 0 0 0
108 1 68.18414754739389 82.71220132686206 57.39814322114363 0 0 0
109 1 65.25074642136839 82.52749400284073 59.280116604823164 0 0 0
111 1 68.08217736883265 52.84925696260564 64.85767286145743 0 0 0
119 1 68.41045827556097 54.115344072365815 62.516998104810334 0 0 0
249 1 58.08199785913922 59.34046634284255 63.84199120052712 0 0 0
235 1 59.90834942579228 57.14174150879629 63.989315957915096 0 0 0
113 1 62.19661549116804 57.068265584249524 62.32954512835874 0 0 0
114 1 62.241215495199434 59.56021883091579 60.956043323964735 0 0 0
116 1 64.12738835037797 58.78552927384395 62.310369244399176 0 0 0
239 1 64.11836542653107 56.76281904293232 64.4952541730529 0 0 0
115 1 63.608232383578795 57.01446139527384 60.60866493461044 0 0 0
383 1 64.4173781912652 54.91582375999499 62.175419608548964 0 0 0
238 1 62.48417972212721 58.58204846232112 64.46798810226457 0 0 0
112 1 60.57635552333199 59.47041227965072 62.6398407338059 0 0 0
230 1 66.18758755774579 54.5140512836951 64.56430965528607 0 0 0
32 1 67.24427615454749 55.904564055304384 61.25387163628051 0 0 0
117 1 65.98099319218986 56.878505939352195 62.96455984507125 0 0 0
118 1 66.2555138833297 58.296835179637405 60.90009207311648 0 0 0
120 1 68.01103684677005 58.487361842109856 62.925970242379115 0 0 0
121 1 69.6367272009593 56.29930335396149 63.12714974783211 0 0 0
122 1 70.05873088181106 58.10021318097027 61.293078857786085 0 0 0
242 1 65.97550263836473 58.4970360433287 64.64315399790655 0 0 0
246 1 69.67164991634077 58.0017714151492 64.71902313625894 0 0 0
243 1 67.69135936242303 56.45497565892313 64.5852743386659 0 0 0
33 1 69.68169434853559 55.4504345387817 60.46936515327308 0 0 0
234 1 58.617464630619146 61.556347326257466 61.60475522489743 0 0 0
124 1 55.76444725569564 62.91769410281495 62.93375322494314 0 0 0
140 1 58.11035227296616 63.202419505939076 63.85530596384385 0 0 0
125 1 56.74078545028577 64.16375873326267 60.98206441391971 0 0 0
141 1 59.192720743783276 64.25270202911724 61.57355313564653 0 0 0
264 1 54.78123517470401 65.04984840855904 65.20557397624702 0 0 0
247 1 56.4690401171528 61.12994937071044 64.48551863696748 0 0 0
126 1 60.270589609814614 61.71298821634133 59.64936698584951 0 0 0
129 1 62.82071052741878 61.824102881053626 60.10725377616455 0 0 0
130 1 64.86559043186143 60.614543243789065 60.475637269790454 0 0 0
255 1 64.39666485416409 60.38234698231403 64.52344131402252 0 0 0
127 1 61.57816750889912 62.461589501667646 61.97918806667691 0 0 0
128 1 62.519842494685385 60.78855095281272 63.18314824607699 0 0 0
142 1 61.3849787740603 64.09081244934092 60.22097959757858 0 0 0
144 1 63.1489386891383 64.36114893257428 62.214495310456286 0 0 0
146 1 64.34074869772189 63.72964756107156 60.2487024705777 0 0 0
251 1 60.14151879633226 61.515288944066945 63.880168129035425 0 0 0
254 1 62.565608368437815 63.04293703579297 64.07678896831699 0 0 0
269 1 60.47112656700281 64.17432412789982 63.747056430284815 0 0 0
273 1 64.76285782925493 63.94154756174005 64.13843541269529 0 0 0
131 1 64.65815029704125 61.86645502753261 62.42985437488345 0 0 0
132 1 66.50384972311922 60.35315477571965 62.48560159384735 0 0 0
133 1 66.53712461802131 62.15779617343307 60.97489879811814 0 0 0
134 1 68.33567212345378 60.08796133844069 60.71326549726186 0 0 0
135 1 68.44105049604728 62.16339625664062 62.5092849278222 0 0 0
136 1 69.75106341896326 59.94706774571596 63.05987634802365 0 0 0
137 1 70.34086822188894 61.75672962976786 60.822107808071664 0 0 0
148 1 66.52628708245408 63.9310904005818 62.31031268588247 0 0 0
150 1 68.48819998744337 64.05313215297971 60.76141522216197 0 0 0
152 1 70.01408428445839 63.92616709156135 62.495857113631544 0 0 0
258 1 66.33072684788038 62.404086313085344 64.2430148780617 0 0 0
262 1 70.16780609213164 62.2497078464382 64.17736170568699 0 0 0
277 1 68.18518325020113 63.75823530862774 64.34164513552027 0 0 0
259 1 67.98727301428677 60.4630228175918 64.4843810570471 0 0 0
432 1 53.03041048549743 67.10912205216586 63.746610938564785 0 0 0
60 1 52.9474664272683 70.22980276495794 63.47585619616535 0 0 0
172 1 57.30189802073248 69.25087283889114 59.99612963898591 0 0 0
138 1 54.604538704349615 67.23930239804119 59.91896397361433 0 0 0
139 1 56.62766155687356 65.12846027914298 63.29482013236854 0 0 0
62 1 59.366977763463176 66.28843176199187 60.07731812083001 0 0 0
123 1 54.01410404269258 64.8063371850451 62.245690893569666 0 0 0
155 1 57.34939555812762 66.67385122384684 61.432403875881306 0 0 0
154 1 55.049558830356574 67.43688402569146 62.78514238836253 0 0 0
156 1 57.43402573545995 69.24623614311122 62.159771276464944 0 0 0
157 1 59.381371520353866 67.77073295983548 62.03144122860944 0 0 0
268 1 58.94102015126365 65.88159216918972 63.838256512035954 0 0 0
284 1 57.34112883517257 67.46891157769036 63.969916800477954 0 0 0
287 1 59.322457585294245 69.34481553748773 64.06744777315508 0 0 0
283 1 55.50856969718594 69.49257802155547 63.63778215734556 0 0 0
173 1 54.49696211406889 69.91594036363966 61.53809321786822 0 0 0
158 1 59.55566781608171 69.24556066178961 60.22193247270737 0 0 0
143 1 61.329631386302225 65.84803806691572 62.237808396353365 0 0 0
145 1 63.27710411406209 65.97223044211066 60.383406958679664 0 0 0
147 1 64.60698832956948 65.87840179681817 62.518988634670954 0 0 0
159 1 61.292911894399865 67.49804366402203 60.257310725498364 0 0 0
160 1 61.21752111239457 69.17406920674601 62.24031308779218 0 0 0
161 1 62.87657285397732 67.83139508085517 62.12454875423254 0 0 0
162 1 63.06509724892633 69.40994633280165 60.29295554602551 0 0 0
163 1 64.98494973450566 67.86139983237283 60.130484298113885 0 0 0
164 1 64.60054908079823 69.52764901526487 62.0504222824955 0 0 0
272 1 62.71022869047472 65.75113734416055 64.37962126958139 0 0 0
288 1 60.950817376008125 67.36693605559671 63.766430211787956 0 0 0
291 1 62.642964372682584 69.62044461526274 63.96174339546553 0 0 0
292 1 64.32530042458575 67.50426419308027 63.851137263612166 0 0 0
149 1 66.20772895020684 65.70523815027805 60.86484202670282 0 0 0
151 1 68.26921202152847 65.85306672361246 62.29132221684453 0 0 0
153 1 70.28152087898864 65.82150517211146 60.74477726177975 0 0 0
165 1 66.44331700926054 67.747587996792 62.33475080360933 0 0 0
166 1 66.87497279533744 69.41232957586136 60.45689160580954 0 0 0
167 1 68.45750683455283 67.63028181082139 60.71446321679729 0 0 0
168 1 68.23950191284014 69.23776202098163 62.529324206392445 0 0 0
169 1 70.04403534375807 67.53432150064093 62.39805653262638 0 0 0
170 1 69.54410580559875 69.88095428446447 60.131151595780054 0 0 0
276 1 66.45701991927723 65.56115113153437 63.96539828339798 0 0 0
280 1 69.80151043137968 65.68303184962917 64.07657703418325 0 0 0
295 1 66.12428246995673 69.49970331159014 64.03930105901286 0 0 0
296 1 67.90174840520942 67.48628629213671 64.0652129470847 0 0 0
299 1 69.64227723595603 69.5131615722338 64.40135907625904 0 0 0
188 1 54.113425120942786 76.14010857997653 63.979205415029895 0 0 0
171 1 52.71569153998521 72.81440317239871 64.79551209520818 0 0 0
174 1 59.464813824852655 70.98119325305088 61.96218160702416 0 0 0
175 1 58.57476417687347 72.29251353753699 60.185781667273986 0 0 0
191 1 58.07276772015743 74.11013522421969 62.00291221660621 0 0 0
302 1 55.180268053076155 72.57256655944529 62.86622389586381 0 0 0
303 1 57.49408374872664 71.30000671305736 63.73695974516266 0 0 0
306 1 59.175049791603875 73.02599954153105 63.70326860944728 0 0 0
321 1 56.707976387151334 74.51769563923928 64.08469527582211 0 0 0
190 1 56.47446387497287 71.21322065623463 60.86452204756123 0 0 0
176 1 61.40381038823405 71.17815719505305 60.31211071974815 0 0 0
177 1 60.89042626328128 72.83849165707385 61.91072238576607 0 0 0
178 1 63.08809228793602 71.44390691297426 62.03169994183298 0 0 0
179 1 62.711616519585725 73.53492627462354 60.13556400627463 0 0 0
180 1 65.08636394194114 71.30876357001814 60.2491433663056 0 0 0
181 1 64.57866193203844 73.11849409345972 61.810900653429684 0 0 0
193 1 60.33086464404892 74.72695950665226 60.61025219279455 0 0 0
195 1 62.41489870477653 75.01971412723005 62.06759787542483 0 0 0
197 1 64.15056142893253 75.42863178190888 60.32348111173616 0 0 0
307 1 60.97414917037054 71.49674407003037 64.1497295502454 0 0 0
310 1 62.81927897161423 73.05810232706807 64.0010408912505 0 0 0
311 1 64.54433889974473 71.2874936326673 63.92031994385321 0 0 0
325 1 60.789576454223194 74.83483765860564 63.73461030720384 0 0 0
329 1 64.42211784942532 74.87723215012713 63.66341169225716 0 0 0
182 1 66.4495691668852 71.51754616830341 62.51718444867473 0 0 0
183 1 65.77428157542238 73.5446575874291 60.118586339535774 0 0 0
184 1 67.71081884811088 71.78293642823367 60.044930012382665 0 0 0
185 1 67.3710686233854 73.33199363682098 61.94009724688975 0 0 0
186 1 69.07409997437748 71.46509485559237 61.90056522594007 0 0 0
187 1 69.59692784885787 73.5754653674657 60.34414077985727 0 0 0
199 1 66.0365305413934 75.30267994664158 61.93464453463096 0 0 0
201 1 67.88949364532075 75.35295041010106 60.19417867635806 0 0 0
203 1 69.3408705292128 75.38546117620868 62.222370440489655 0 0 0
314 1 65.8770874577451 73.30425568293286 64.07738167155598 0 0 0
315 1 67.76411286554621 71.5961185685485 64.27728161759669 0 0 0
318 1 69.08967641061717 73.31667763529178 64.07646347452034 0 0 0
333 1 67.61959517722003 75.07136765126111 64.01981605293392 0 0 0
87 1 56.661725866496724 76.3651003642212 62.57790470652406 0 0 0
192 1 58.41708190726701 76.00147820730307 60.76014769349199 0 0 0
205 1 58.35952818065056 78.42028255075759 62.040682895679154 0 0 0
324 1 58.69130420612674 76.27258299154417 64.14641132050444 0 0 0
338 1 56.251875070123766 77.98286239223906 64.37355655387256 0 0 0
341 1 58.15617843266813 79.83456055881761 64.11172636254071 0 0 0
206 1 60.359685193518786 78.48537834608825 60.86107778717954 0 0 0
194 1 60.093785614228416 76.43848662586247 62.26558587458147 0 0 0
196 1 62.16080945010429 77.00154932956198 60.5771352494699 0 0 0
198 1 64.23226068142888 77.07502070220416 62.16472463367077 0 0 0
207 1 59.835342322038535 80.78526427132832 62.861249330110816 0 0 0
208 1 62.17097052446983 78.1915703212447 62.68878164599406 0 0 0
209 1 62.189692516555596 80.30099543771762 61.405668697934 0 0 0
210 1 63.895623069624115 78.93453735042735 60.34416088840424 0 0 0
211 1 63.90205671807284 80.12125413293805 62.50908235303438 0 0 0
328 1 62.62469183451858 76.40072862053059 64.16065037441196 0 0 0
342 1 60.21667012456146 78.19842400680677 63.95474254300998 0 0 0
345 1 61.93373452563159 80.2031359465338 64.17134414187413 0 0 0
346 1 63.95868597341991 78.52897660387316 64.43169366016573 0 0 0
200 1 65.98954636747823 77.13658291157715 60.27740346848919 0 0 0
202 1 67.85916397982004 77.36615501400118 62.294200805177056 0 0 0
204 1 69.69369188422048 77.14832603562768 60.94052230818788 0 0 0
212 1 65.85731288598443 78.64255845092518 62.51782053737232 0 0 0
213 1 65.68974032454868 80.51593485862239 60.832507437146894 0 0 0
214 1 67.48352342500554 79.26898266588526 60.78006134044938 0 0 0
215 1 67.57021546108945 80.20925929324994 63.12979818767539 0 0 0
216 1 69.73893572013883 78.98464120384217 62.60949547574719 0 0 0
332 1 65.7406720018127 76.78100265176386 63.94289464398232 0 0 0
336 1 69.44016946063188 76.77408128068265 64.06179579213095 0 0 0
349 1 65.79472023244213 80.22055228162957 64.29100737882474 0 0 0
350 1 67.66378032256158 78.1519418582297 64.4623845653838 0 0 0
353 1 69.7107064591119 80.27935946100658 64.68619600312667 0 0 0
217 1 69.45015825579567 80.64313557051143 61.39568203594384 0 0 0
355 1 59.24785148282991 82.54071109722332 64.30777171323012 0 0 0
218 1 61.81594129226775 82.5842214984983 63.39041510253902 0 0 0
219 1 63.47807687803138 82.42760407002913 61.16184320019599 0 0 0
359 1 63.699266468693374 81.94685052109298 64.33075952683788 0 0 0
220 1 63.73234376207689 84.19306260555275 63.50036728468657 0 0 0
226 1 67.37536751925133 84.74900460137272 59.345651870849174 0 0 0
110 1 69.51146486605145 83.48524906117753 60.627365724783196 0 0 0
222 1 65.69800687097637 83.74752506803193 61.52588889481459 0 0 0
221 1 65.6426359315226 81.86107281156936 62.878155608768964 0 0 0
223 1 67.56213630421674 82.13287291653708 61.70090496784996 0 0 0
224 1 68.29073148832228 84.31678608284874 62.33934215730648 0 0 0
225 1 69.33192453814317 82.26499445715798 63.29226802611803 0 0 0
363 1 67.20619587041455 82.46169929085504 64.76855455808963 0 0 0
366 1 68.82445842214595 84.46519701785567 64.86979987109754 0 0 0
371 1 69.2800963224535 86.5679517963555 63.242800874973824 0 0 0
362 1 66.16331770036169 84.29058980485893 63.83271904156738 0 0 0
228 1 68.56853177832753 86.7703511790749 61.00660825217363 0 0 0
368 1 66.6590943304001 86.2884379401725 62.395368309113564 0 0 0
227 1 67.5239951420597 88.04120122447281 64.34044722298802 0 0 0
377 1 65.92335904956386 52.37983069379822 66.37863650498088 0 0 0
34 1 70.44855815290403 59.15858472509207 57.116489741607396 0 0 0
379 1 67.37505012719247 52.82170561014616 68.72411446390261 0 0 0
232 1 69.79257020362384 52.62240481079009 66.70257293890468 0 0 0
1431 1 69.46666641356792 52.629376164996636 70.1187460691771 0 0 0
537 1 57.85584515109095 57.21423687982895 69.41061211295204 0 0 0
381 1 56.36543705635755 59.437701328300555 68.85944274580542 0 0 0
396 1 58.26085284937874 58.88244821232037 67.07837387218515 0 0 0
397 1 60.027907752648986 57.037551781391656 67.7370302745568 0 0 0
373 1 64.19003146458986 54.618066793186266 65.75992147040246 0 0 0
384 1 61.55611105960623 54.77923676516068 67.71314972871714 0 0 0
237 1 61.88113131001797 56.79503223177998 65.9310164929568 0 0 0
240 1 64.12098438298918 58.3936675551197 66.35172043164238 0 0 0
385 1 59.96430934300085 59.03583971869711 69.30923169131854 0 0 0
386 1 62.04400826552941 57.50628618282627 69.56003212697851 0 0 0
387 1 61.929890168822766 58.863780576267 67.239828811158 0 0 0
388 1 64.00007968070852 56.62157124748439 67.80696419705322 0 0 0
389 1 63.96568738220444 58.92035642072176 69.1585635364261 0 0 0
374 1 63.291642053538325 55.458198551853265 69.7497689595468 0 0 0
236 1 60.332455941764906 59.38474572794891 65.17829591520248 0 0 0
231 1 69.71721584142449 54.78582517105926 65.30233766517867 0 0 0
229 1 65.24771453499326 54.73925701156331 68.01398127446015 0 0 0
241 1 65.78424741814318 56.4725167932996 66.09696889741025 0 0 0
244 1 67.92330819374138 58.456114383789455 66.29358521819059 0 0 0
245 1 69.63178754001392 56.43749748545734 66.57507077251401 0 0 0
376 1 67.57995594226097 54.84227946667708 66.75253537379645 0 0 0
380 1 69.79298675823156 54.59783908790834 68.30247116587562 0 0 0
390 1 65.73771346711769 56.905354728998184 69.74046586629733 0 0 0
391 1 66.30715348321357 58.5002671123544 67.9111058623465 0 0 0
392 1 67.78663248393546 56.74902465368956 68.20601197749286 0 0 0
393 1 68.13189683939827 58.6050609230619 69.68306431684935 0 0 0
395 1 69.89684414192412 58.94367529813178 67.73502236647373 0 0 0
378 1 67.45077998692534 55.01732702614383 69.5495484349566 0 0 0
394 1 69.87308018279889 57.00596458467834 69.11346725694139 0 0 0
398 1 56.65432870025651 62.39883546409387 70.25783906480788 0 0 0
550 1 54.543471412559576 61.60864858501521 69.37157699367104 0 0 0
263 1 54.34492139776547 63.39599779014568 67.30541442729967 0 0 0
250 1 58.609098930986114 61.28239068597632 65.6375845936328 0 0 0
265 1 56.539335847120334 63.35684819825898 65.64405927819328 0 0 0
248 1 56.39210682590982 61.32526204480178 67.30769106555337 0 0 0
267 1 58.74026271476365 64.48762790186916 65.70101037061804 0 0 0
399 1 58.39892361468354 61.10280642882555 69.1936587574552 0 0 0
400 1 58.64918278378721 62.72417037499835 67.60261067118363 0 0 0
416 1 56.51783776982213 63.64549182304749 68.2820453695046 0 0 0
418 1 58.75512970137115 64.0738237466375 69.66083492421627 0 0 0
414 1 54.586316306279876 64.0486800621375 70.20445779160849 0 0 0
252 1 60.538737928070084 62.8572584199648 65.77804195519002 0 0 0
253 1 62.007273482695794 61.099362012790586 65.67649549913044 0 0 0
256 1 64.50338831722566 62.22570442599908 65.8026172234515 0 0 0
271 1 62.50211878080533 63.963788106461635 66.10999458508996 0 0 0
401 1 60.16561038852513 60.48487736347005 67.31829832812545 0 0 0
402 1 60.3724177974667 62.25805686735129 69.47763724581891 0 0 0
403 1 61.95173767040624 60.51280171888627 69.31850295189567 0 0 0
404 1 62.182116801857404 62.2842328407294 67.80081433749592 0 0 0
405 1 63.69183205658911 60.5301082196438 67.39117125497819 0 0 0
406 1 64.06510574630971 62.18748395361653 69.65243575333639 0 0 0
420 1 60.53324465294984 64.49310098143076 67.83533378587606 0 0 0
422 1 62.524532077645745 64.20380396352952 69.47492074151678 0 0 0
424 1 64.20418269655912 63.72925043403543 67.70090832812087 0 0 0
257 1 66.37628455164733 60.37393910507531 66.07344393762665 0 0 0
260 1 67.92426326513824 62.203470613953556 66.16176912527507 0 0 0
261 1 69.79835137626031 60.25174547922663 65.75505800564291 0 0 0
275 1 66.16375344548455 63.98996119790064 66.22918700375023 0 0 0
279 1 69.47610005298483 64.00845459635825 66.09657950280813 0 0 0
407 1 65.88048376971446 60.59135536181774 69.51695043556082 0 0 0
408 1 65.85159636111516 61.97319141244132 67.7650734897115 0 0 0
409 1 67.84309302298828 60.55413810355086 67.96883980518838 0 0 0
410 1 67.90778288570137 62.299480533459146 69.50396103074576 0 0 0
411 1 69.95496566492592 60.863724991685494 69.59254277174573 0 0 0
412 1 69.70677051058613 62.261788680825575 67.6609738193475 0 0 0
426 1 65.96685051949363 64.04367013361299 69.57848335533264 0 0 0
428 1 67.84411026936388 64.19165965442545 67.96265522307027 0 0 0
430 1 69.67526016013817 64.31953073836051 69.4875528046622 0 0 0
413 1 53.33928534954816 65.70729864951917 69.33150305512396 0 0 0
433 1 53.38134698896649 66.88250429067728 66.81319778216742 0 0 0
586 1 52.897777605368994 68.58781735136988 69.04097226633836 0 0 0
281 1 53.138340204623844 69.59844087146756 65.90070550818713 0 0 0
415 1 55.27519474265294 65.8972262554755 67.78734233296102 0 0 0
266 1 57.1921262377621 65.99266488620198 65.7595226908443 0 0 0
282 1 55.31432341748866 67.6666419920897 65.41767170033972 0 0 0
285 1 57.18213161318083 69.50029727849775 65.51095856031411 0 0 0
286 1 59.10079789845848 67.84962878596828 65.7192579871256 0 0 0
417 1 57.52059848235555 65.7058105124632 69.24333432903724 0 0 0
419 1 58.839168921655585 65.96269620322565 67.38482992998733 0 0 0
434 1 55.18014496321485 67.97664118420971 69.39825102886624 0 0 0
435 1 55.3136972877726 69.543257197589 67.35028987558174 0 0 0
436 1 57.09090442039245 67.88227183024995 67.52956081503326 0 0 0
437 1 56.94535637196098 69.81379439558155 69.16737370768462 0 0 0
439 1 59.079329153888494 69.66080483628902 67.29201084053621 0 0 0
438 1 58.7168109995557 68.17430124731288 69.30629449638461 0 0 0
454 1 54.81253025916359 70.74077976067969 69.58866851777083 0 0 0
270 1 60.948585978005504 66.00234699805955 65.71734722723603 0 0 0
274 1 64.55961139587008 65.86645770989786 65.56776118017928 0 0 0
289 1 60.99913678625806 69.53352662244417 65.74425300120619 0 0 0
290 1 62.66720351063058 67.86691320514132 65.8774964934662 0 0 0
293 1 64.25829075265992 69.74989115261862 65.69728119922367 0 0 0
421 1 60.755274982747785 66.30149114680633 69.71845038075729 0 0 0
423 1 62.57614955093186 66.12340328499069 67.52163260990633 0 0 0
425 1 64.10523790504995 66.06391464951187 69.75227298651815 0 0 0
440 1 60.766326026058174 67.93283998361127 67.58479303809142 0 0 0
441 1 60.87620466605146 69.38542330647438 69.65868616040963 0 0 0
442 1 62.52717131123788 67.64336682555818 69.53964867435684 0 0 0
443 1 62.64741206834393 69.4833812828001 67.6725381677249 0 0 0
444 1 64.27933732702716 68.00173743745269 67.91091534680542 0 0 0
445 1 64.01793175484929 69.34852349203092 69.75843723708017 0 0 0
278 1 67.67232201253636 66.1650633839143 66.11819461101412 0 0 0
294 1 65.77408455144028 67.75006591586502 65.44761851765529 0 0 0
297 1 67.87608262852653 69.43365294311288 65.87088800778163 0 0 0
298 1 69.82906614900945 67.90474374555329 66.05018381534433 0 0 0
427 1 65.50284109718964 65.89644017720705 67.87071705893176 0 0 0
429 1 67.41733220543563 65.86718752974348 69.6228669587041 0 0 0
431 1 69.68597054150973 66.0426267283593 67.58998284611988 0 0 0
446 1 65.85630345727952 67.4938988800928 69.63583148840068 0 0 0
447 1 66.18958205042995 69.28608077553133 67.52671740364137 0 0 0
448 1 67.73942323115153 67.51569931128591 67.81238803008091 0 0 0
449 1 67.60138779003692 69.51817810497712 69.33444192840352 0 0 0
450 1 69.39321911078518 67.58030495848168 69.58851650641414 0 0 0
451 1 69.36869311063165 69.57005504524467 67.9851738014056 0 0 0
300 1 52.737535019309504 74.21534188825991 67.84380463055226 0 0 0
452 1 53.02948468124857 71.42734980315059 67.37563766692926 0 0 0
453 1 52.71162355527754 72.31534858570036 69.89208908894437 0 0 0
319 1 54.8209239830943 74.01506904273306 65.89078307773728 0 0 0
473 1 54.90806588895384 74.0859860197193 69.45509907005952 0 0 0
301 1 55.16949283798675 71.67504201423641 65.08608212109677 0 0 0
304 1 57.07774277828159 72.99567252164657 65.74065018520528 0 0 0
305 1 59.04198147329246 71.27433423829468 65.81689168063672 0 0 0
323 1 58.9594652580819 74.47898647427942 65.76485104448119 0 0 0
455 1 55.165586870917096 72.49484127376385 67.51341537788218 0 0 0
456 1 57.106952877317994 71.04362744222216 67.12009800105005 0 0 0
457 1 57.12817717171827 72.33107817181339 69.3533731634394 0 0 0
458 1 59.08063485012988 70.88426060874404 69.55075547237378 0 0 0
459 1 58.87129340337624 72.84238944299214 67.63586058849535 0 0 0
475 1 56.738413230137695 74.54913798540288 67.80153399995359 0 0 0
477 1 58.798951410855324 74.3995487123933 69.30831835550232 0 0 0
322 1 56.452723036974 76.0537568585399 65.7665990451051 0 0 0
474 1 54.695890814811754 75.85749475134301 67.49140763257168 0 0 0
308 1 60.74151804063625 73.32787551310307 65.74704461368124 0 0 0
309 1 62.36206193189482 71.37496040499201 66.09425589057959 0 0 0
312 1 64.29345223110015 73.18188990240623 65.9557553900107 0 0 0
327 1 62.54331423949738 74.88042200756539 66.1049792994771 0 0 0
460 1 60.68418686849676 71.3111736997127 67.53203479343075 0 0 0
461 1 60.79995771978924 73.02365457157599 69.5012073413237 0 0 0
462 1 62.34304208021192 71.17967427623523 69.70175013723984 0 0 0
463 1 62.65144005067045 73.119181099986 67.83742483399654 0 0 0
464 1 64.15112907767467 71.35272663401513 67.75687237278036 0 0 0
465 1 64.36527306883075 73.09291476584399 69.4359444775027 0 0 0
479 1 60.842988512481796 74.66722907203714 67.71282003987457 0 0 0
481 1 62.36766775402852 74.81412965529275 69.59619224858974 0 0 0
483 1 64.18958955394649 74.91789494479706 68.11732035256074 0 0 0
313 1 66.05594123370558 71.41926524936463 66.17441041574934 0 0 0
316 1 67.69004285614523 73.47673180789612 66.02155127200037 0 0 0
317 1 69.08769146394967 71.49523645303013 66.11421287869855 0 0 0
331 1 65.52197128040424 75.08431377421707 66.01296609155023 0 0 0
335 1 69.5041611151472 75.13879486852768 65.77164293535456 0 0 0
466 1 65.79362956301901 71.26537622375555 69.4331745128795 0 0 0
467 1 65.86172269782546 73.27132551812704 67.68355480009544 0 0 0
468 1 67.48830536220586 71.56337108338987 68.0096782628447 0 0 0
469 1 67.91222860028836 73.39892217778977 69.62348477131098 0 0 0