LAMMPS (29 Sep 2021 - Update 2)
OMP_NUM_THREADS environment is not set. Defaulting to 1 thread. (src/comm.cpp:98)
  using 1 OpenMP thread(s) per MPI task
variable dt equal 0.0001
variable t index 900 1000
label loop1
variable p index 1 2
label loop2
units metal
boundary p p p
atom_style atomic
lattice custom 6.711 a1 0.3671583967 0 0 a2 0.1835791983 0.3179684987 0 a3 0 0 1 basis 0.1 0.1 0.05 basis 0.433 0.433 0.55
Lattice spacing in x,y,z = 3.6960000 2.1338866 6.7110000
region 1 block 0.0 40.0 0.0 40.0 0.0 20.0 units lattice
region 2 block 10.0 20.0 10.0 30.0 8.5 10.0 units lattice
region 3 block 20.0 30.0 10.0 30.0 8.3 9.0 units lattice
region 4 block 10.0 20.0 10.0 30.0 10.0 10.5 units lattice
region 5 block 20.0 30.0 10.0 30.0 9.0 9.5 units lattice
create_box 2 1
Created orthogonal box = (0.0000000 0.0000000 0.0000000) to (147.84000 85.355464 134.22000)
  2 by 1 by 2 MPI processor grid
create_atoms 1 region 4
Created 300 atoms
  using lattice units in orthogonal box = (0.0000000 0.0000000 0.0000000) to (147.84000 85.355464 134.22000)
  create_atoms CPU = 0.001 seconds
lattice custom 6.711 a1 0.3671583967 0 0 a2 0.1835791983 0.3179684987 0 a3 0 0 1 basis 0.2667 0.2667 0.25 basis 0.6 0.6 0.75
Lattice spacing in x,y,z = 3.6960000 2.1338866 6.7110000
create_atoms 1 region 5
Created 300 atoms
  using lattice units in orthogonal box = (0.0000000 0.0000000 0.0000000) to (147.84000 85.355464 134.22000)
  create_atoms CPU = 0.001 seconds
mass 1 12.0107
lattice custom 5.4309 a1 1 0 0 a2 0 1 0 a3 0 0 1 basis 0.15 0.15 0.15 basis 0.65 0.65 0.15 basis 0.65 0.15 0.65 basis 0.15 0.65 0.65
Lattice spacing in x,y,z = 5.4309000 5.4309000 5.4309000
create_atoms 2 region 2
Created 416 atoms
  using lattice units in orthogonal box = (0.0000000 0.0000000 0.0000000) to (147.84000 85.355464 134.22000)
  create_atoms CPU = 0.001 seconds
lattice custom 5.4309 a1 1 0 0 a2 0 1 0 a3 0 0 1 basis 0.65 0.35 0.35 basis 0.65 0.85 0.85 basis 0.15 0.85 0.35 basis 0.15 0.85 0.0.85
Lattice spacing in x,y,z = 5.4309000 5.4309000 5.4309000
create_atoms 2 region 3
Created 203 atoms
  using lattice units in orthogonal box = (0.0000000 0.0000000 0.0000000) to (147.84000 85.355464 134.22000)
  create_atoms CPU = 0.001 seconds
mass 2 28.0855
group 1 type 1
600 atoms in group 1
group 2 type 2
619 atoms in group 2
group 3 type 1
600 atoms in group 3
group 3 type 2
1219 atoms in group 3
pair_style kim Tersoff_LAMMPS_ErhartAlbe_2005SiII_SiC__MO_408791041969_003
pair_coeff * * C Si
neighbor 2.5 bin
neigh_modify every 1 delay 100
dump 1 all atom 100 dump.SiC_$t_$p_dt:${dt}
dump 1 all atom 100 dump.SiC_900_$p_dt:${dt}
dump 1 all atom 100 dump.SiC_900_1_dt:${dt}
dump 1 all atom 100 dump.SiC_900_1_dt:0.0001
compute 1 1 pe/atom
compute 2 1 ke/atom
compute 3 2 pe/atom
compute 4 2 ke/atom
compute 5 3 pe/atom
compute 6 3 ke/atom
compute ape_C 1 reduce ave c_1
compute ake_C 1 reduce ave c_2
compute ape_Si 2 reduce ave c_3
compute ake_Si 2 reduce ave c_4
compute ape_CSi 3 reduce ave c_5
compute ake_CSi 3 reduce ave c_6
velocity 3 zero linear
velocity 3 zero angular
fix 1 3 nvt temp 0.001 10.0 0.001 fixedpoint 20.0 35.0 20.0
thermo_style custom step temp press c_ape_C c_ake_C c_ape_Si c_ake_Si
thermo 100
timestep 0.0001
run 5000

CITE-CITE-CITE-CITE-CITE-CITE-CITE-CITE-CITE-CITE-CITE-CITE-CITE

Your simulation uses code contributions which should be cited:

- OpenKIM: https://doi.org/10.1007/s11837-011-0102-6

@Article{tadmor:elliott:2011,
 author = {E. B. Tadmor and R. S. Elliott and J. P. Sethna and R. E. Miller and C. A. Becker},
 title = {The potential of atomistic simulations and the {K}nowledgebase of {I}nteratomic {M}odels},
 journal = {{JOM}},
 year =    2011,
 volume =  63,
 number =  17,
 pages =   {17},
 doi =     {10.1007/s11837-011-0102-6}
}

- OpenKIM potential: https://openkim.org/cite/MO_408791041969_003#item-citation

@Comment
{
\documentclass{article}
\usepackage{url}
\begin{document}
This Model originally published in \cite{MO_408791041969_003a} is archived in OpenKIM~\cite{MO_408791041969_003, MD_077075034781_004, tadmor:elliott:2011, elliott:tadmor:2011}.
\bibliographystyle{vancouver}
\bibliography{kimcite-MO_408791041969_003.bib}
\end{document}
}

@Misc{MO_408791041969_003,
  author       = {Karsten Albe and Paul Erhart and Tobias Brink},
  title        = {{T}ersoff-style three-body potential for {S}i{C} (with {S}i{II} parameter set) developed by {E}rhart and {A}lbe (2005) v003},
  doi          = {10.25950/4ecba3f8},
  howpublished = {OpenKIM, \url{https://doi.org/10.25950/4ecba3f8}},
  keywords     = {OpenKIM, Model, MO_408791041969_003},
  publisher    = {OpenKIM},
  year         = 2021,
}

@Misc{MD_077075034781_004,
  author       = {U. Littmark and Jochen P. Biersack and James F. Ziegler and Kai Nordlund and Paul Erhart and Karsten Albe and J. Nord and Jerry Tersoff and Tobias Brink and Aidan P. Thompson and David E. Farrell and Mingjian Wen},
  title        = {{M}odel driver for {T}ersoff-style potentials ported from {LAMMPS} v004},
  doi          = {10.25950/57484673},
  howpublished = {OpenKIM, \url{https://doi.org/10.25950/4ecba3f8}},
  keywords     = {OpenKIM, Model Driver, MD_077075034781_004},
  publisher    = {OpenKIM},
  year         = 2021,
}

@Article{tadmor:elliott:2011,
  author    = {E. B. Tadmor and R. S. Elliott and J. P. Sethna and R. E. Miller and C. A. Becker},
  title     = {The potential of atomistic simulations and the {K}nowledgebase of {I}nteratomic {M}odels},
  journal   = {{JOM}},
  year      = {2011},
  volume    = {63},
  number    = {7},
  pages     = {17},
  doi       = {10.1007/s11837-011-0102-6},
}

@Misc{elliott:tadmor:2011,
  author       = {Ryan S. Elliott and Ellad B. Tadmor},
  title        = {{K}nowledgebase of {I}nteratomic {M}odels ({KIM}) Application Programming Interface ({API})},
  howpublished = {\url{https://openkim.org/kim-api}},
  publisher    = {OpenKIM},
  year         = 2011,
  doi          = {10.25950/ff8f563a},
}

@Article{MO_408791041969_003a,
  author = {Erhart, Paul and Albe, Karsten},
  doi = {10.1103/PhysRevB.71.035211},
  issue = {3},
  journal = {Physical Review B},
  month = {Jan},
  numpages = {14},
  pages = {035211},
  publisher = {American Physical Society},
  title = {Analytical potential for atomistic simulations of silicon, carbon, and silicon carbide},
  volume = {71},
  year = {2005},
}
CITE-CITE-CITE-CITE-CITE-CITE-CITE-CITE-CITE-CITE-CITE-CITE-CITE

WARNING: More than one compute ke/atom (src/compute_ke_atom.cpp:56)
WARNING: More than one compute ke/atom (src/compute_ke_atom.cpp:56)
WARNING: More than one compute ke/atom (src/compute_ke_atom.cpp:56)
Neighbor list info ...
  update every 1 steps, delay 100 steps, check yes
  max neighbors/atom: 2000, page size: 100000
  master list distance cutoff = 5.55
  ghost atom cutoff = 5.55
  binsize = 2.775, bins = 54 31 49
  1 neighbor lists, perpetual/occasional/extra = 1 0 0
  (1) pair kim, perpetual
      attributes: full, newton off, ghost, cut 5.55
      pair build: full/bin/ghost
      stencil: full/ghost/bin/3d
      bin: standard
Per MPI rank memory allocation (min/avg/max) = 4.356 | 6.051 | 11.12 Mbytes
Step Temp Press c_ape_C c_ake_C c_ape_Si c_ake_Si 
       0            0   -870.81698  -0.49905691            0  -0.70223477            0 
     100  0.020366713   -882.07495  -0.50457207 3.709032e-06  -0.70799051 1.5849642e-06 
     200  0.038214374   -892.29123  -0.50989108 6.9648701e-06  -0.71353881 2.9685062e-06 
     300  0.090789339   -902.63431  -0.51566826 1.6563621e-05  -0.71955918 7.036506e-06 
     400   0.25969865   -914.29776  -0.52286701 4.7445923e-05  -0.72704821 2.0063174e-05 
     500   0.68581758   -928.01107  -0.53321989 0.00012557604  -0.73778555 5.2711976e-05 
     600    1.0334483   -940.12952  -0.54663793 0.00018979523  -0.75163227 7.8881721e-05 
     700    1.2574911   -945.40499  -0.56123152 0.00023156355  -0.76660259 9.5379373e-05 
     800    1.4668565   -941.13694  -0.57637051 0.00027046528  -0.78206374 0.00011092254 
     900    1.6718302   -925.44941  -0.59172971 0.00030778076  -0.79775083 0.00012688622 
    1000    1.8740544   -898.68124  -0.60693077 0.00034269179  -0.81340354 0.00014448127 
    1100    2.0771378   -862.02644  -0.62153954 0.0003743227  -0.82875183 0.00016547429 
    1200    2.2899384   -820.41232  -0.63521319 0.00040260307  -0.84361059 0.00019218649 
    1300    2.5143455   -784.37317  -0.64799231 0.00043049051  -0.85804138 0.00022223163 
    1400    2.7340859   -753.01645  -0.66023738 0.00045811313  -0.87224433 0.00025134648 
    1500    2.9418798   -729.12442  -0.67229663 0.00048881012  -0.88636139 0.00027444284 
    1600    3.1443109   -704.55621  -0.68429178 0.00051943593  -0.90037429 0.00029624419 
    1700    3.3438942    -676.5588  -0.69615092 0.00054690525   -0.9142467 0.00032038083 
    1800    3.5485159   -645.95153   -0.7077608 0.00057462973  -0.92791756 0.00034555162 
    1900    3.7455165   -612.59364  -0.71911935 0.00060116137  -0.94136166 0.00036994023 
    2000    3.9438221     -575.629  -0.73005339 0.00062695593  -0.95443378 0.00039537525 
    2100    4.1530714   -535.77405  -0.74045298 0.00065537422  -0.96699166 0.00042105053 
    2200     4.361589   -499.49026  -0.75047124 0.00068771344  -0.97909286 0.00044273913 
    2300    4.5671262   -463.58322  -0.76029292 0.00072138146  -0.99086054 0.00046238166 
    2400    4.7863734   -430.79785   -0.7700475 0.00076586239    -1.002355 0.00047503026 
    2500     5.372901   -430.35827   -0.7844711 0.0011229012   -1.0125382 0.00027813033 
    2600    5.1455302   -415.33922    -0.812769 0.0011413598   -1.0188372 0.00020240794 
    2700    5.3170779   -385.62554  -0.83561855 0.0011017307   -1.0260681 0.00028445273 
    2800    5.4221806   -363.23274  -0.85821626 0.0011383499   -1.0334406 0.00027568983 
    2900    5.8702398   -346.53236  -0.87603209 0.0011810817   -1.0417914 0.00034823071 
    3000    6.0184358   -348.86405  -0.89938311 0.0013098334   -1.0485566 0.00026112379 
    3100    6.1526094   -338.06232  -0.92773214 0.0013810837   -1.0538687 0.00022618666 
    3200    6.0491167   -309.32054   -0.9561739 0.0013162633   -1.0590887 0.00026269474 
    3300    6.1633834   -276.28194   -0.9803276 0.0012528775   -1.0653964 0.0003531979 
    3400    7.0171946   -269.07478   -0.9988561 0.0014536745   -1.0735776 0.00037572599 
    3500    6.7938725   -256.74097   -1.0267315 0.0015069025   -1.0794734 0.00026733123 
    3600    7.1699535     -220.813   -1.0484341 0.0013909176   -1.0863482 0.0004754099 
    3700    7.3682719    -207.7768   -1.0676533  0.001432635   -1.0940681 0.00048541402 
    3800    7.9462635   -228.18889   -1.0933136 0.0017551589   -1.1008614 0.00031979853 
    3900    7.7016122   -215.01636   -1.1314688 0.0017552885   -1.1055263 0.00025744733 
    4000    7.9528604   -182.20035   -1.1589643 0.0015884837   -1.1119491 0.00048303559 
    4100    7.9821637      -191.71   -1.1906782 0.0018058448   -1.1171451 0.00027979939 
    4200    8.6067102   -157.66825    -1.219999 0.0017329736   -1.1231668 0.00050928343 
    4300     8.915318   -152.48331   -1.2480985 0.0018793522   -1.1297244 0.0004458904 
    4400    8.7643382   -129.30239    -1.274107 0.0017040724   -1.1366163 0.00057738925 
    4500    8.6951867   -138.87557   -1.3038675 0.0019227151   -1.1428365 0.00034786944 
    4600     8.885161   -125.73678    -1.340216 0.0019975463   -1.1469391 0.00032365395 
    4700    9.4116494   -99.199512   -1.3709153 0.0019496874   -1.1519657 0.00050395296 
    4800    8.8688567   -91.445567   -1.3995384  0.001848218   -1.1585003 0.00046425177 
    4900      9.76904   -79.858274   -1.4238121 0.0019301174   -1.1656175 0.00061382235 
    5000    10.105115   -81.581274   -1.4423916 0.0018678957   -1.1744637 0.00075961293 
Loop time of 2.86505 on 4 procs for 5000 steps with 1219 atoms

Performance: 15.078 ns/day, 1.592 hours/ns, 1745.171 timesteps/s
98.9% CPU use with 4 MPI tasks x 1 OpenMP threads

MPI task timing breakdown:
Section |  min time  |  avg time  |  max time  |%varavg| %total
---------------------------------------------------------------
Pair    | 0.30224    | 1.6074     | 2.509      |  64.9 | 56.10
Neigh   | 0          | 0          | 0          |   0.0 |  0.00
Comm    | 0.17369    | 1.0655     | 2.3498     |  78.5 | 37.19
Output  | 0.062836   | 0.063009   | 0.063297   |   0.1 |  2.20
Modify  | 0.068535   | 0.077168   | 0.093614   |   3.6 |  2.69
Other   |            | 0.05203    |            |       |  1.82

Nlocal:        304.750 ave         503 max           0 min
Histogram: 1 0 0 0 0 1 0 0 1 1
Nghost:        273.250 ave         372 max         104 min
Histogram: 1 0 0 0 0 1 0 0 0 2
Neighs:         0.00000 ave           0 max           0 min
Histogram: 4 0 0 0 0 0 0 0 0 0
FullNghs:      6178.50 ave        9470 max           0 min
Histogram: 1 0 0 0 0 0 0 1 1 1

Total # of neighbors = 24714
Ave neighs/atom = 20.273995
Neighbor list builds = 0
Dangerous builds = 0
reset_timestep 0
unfix 1
velocity 3 zero linear
velocity 3 zero angular
velocity 3 create $t 12025
velocity 3 create 900 12025
velocity 3 scale $t
velocity 3 scale 900
fix 1 3 npt temp $t $t 0.001 iso $p $p 0.01 fixedpoint 20.0 35.0 20.0
fix 1 3 npt temp 900 $t 0.001 iso $p $p 0.01 fixedpoint 20.0 35.0 20.0
fix 1 3 npt temp 900 900 0.001 iso $p $p 0.01 fixedpoint 20.0 35.0 20.0
fix 1 3 npt temp 900 900 0.001 iso 1 $p 0.01 fixedpoint 20.0 35.0 20.0
fix 1 3 npt temp 900 900 0.001 iso 1 1 0.01 fixedpoint 20.0 35.0 20.0
thermo_style custom step temp press c_ape_C c_ake_C c_ape_Si c_ake_Si c_ape_CSi c_ake_CSi
thermo 100
timestep ${dt}
timestep 0.0001
run 30000
WARNING: More than one compute ke/atom (src/compute_ke_atom.cpp:56)
WARNING: More than one compute ke/atom (src/compute_ke_atom.cpp:56)
WARNING: More than one compute ke/atom (src/compute_ke_atom.cpp:56)
Neighbor list info ...
  update every 1 steps, delay 100 steps, check yes
  max neighbors/atom: 2000, page size: 100000
  master list distance cutoff = 5.55
  ghost atom cutoff = 5.55
  binsize = 2.775, bins = 54 31 49
  1 neighbor lists, perpetual/occasional/extra = 1 0 0
  (1) pair kim, perpetual
      attributes: full, newton off, ghost, cut 5.55
      pair build: full/bin/ghost
      stencil: full/ghost/bin/3d
      bin: standard
Per MPI rank memory allocation (min/avg/max) = 4.857 | 6.927 | 13.12 Mbytes
Step Temp Press c_ape_C c_ake_C c_ape_Si c_ake_Si c_ape_CSi c_ake_CSi 
       0          900    6.7733369   -1.4423916   0.11932493   -1.1744637   0.11324719   -1.3063396    0.1162387 
     100    975.73054   -4.3087106   -1.5425718   0.15953798    -1.169612  0.093530064   -1.3531853   0.12601961 
     200    1024.0149    83.498918   -1.8671733   0.22133859   -1.1875858  0.045907242   -1.5220834   0.13225573 
     300    930.98868    72.948463   -2.2559443   0.21757632   -1.2127244  0.025893379   -1.7262042   0.12024101 
     400    889.69667    35.633013   -2.5972954   0.21370047   -1.2296479  0.019147894   -1.9028132   0.11490798 
     500    896.14445    19.667675   -2.7490555   0.20922941   -1.2414918   0.02512167   -1.9835248   0.11574074 
     600    904.60891    5.1856211   -2.8180385   0.20432142   -1.2517975  0.032031892   -2.0227118   0.11683396 
     700    938.86452    54.021979   -2.9956417    0.2194065   -1.2676681  0.026122543   -2.1181884   0.12125821 
     800    916.57659    28.952424   -3.0546918   0.20798962   -1.2753327  0.031520192   -2.1511452   0.11837963 
     900    944.88997   -20.610049   -3.1853069   0.21727189   -1.2960671  0.029724174   -2.2259636   0.12203642 
    1000    914.95481   -11.766549   -3.3279517   0.21375792   -1.3078446  0.025516456   -2.3021549   0.11817017 
    1100    931.24471    45.949404   -3.3907205   0.21487455    -1.329827  0.028577343   -2.3442126   0.12027408 
    1200    917.09657    17.848694   -3.4958112   0.20540716   -1.3502785   0.03415564   -2.4063242   0.11844679 
    1300    900.64885   -11.789095   -3.6180048   0.20031543   -1.3661598    0.0349077   -2.4745331    0.1163225 
    1400    908.93176    -20.22604   -3.6754267   0.20598809   -1.3787686  0.031515866   -2.5091992   0.11739227 
    1500    922.95323   -24.487969   -3.7808566   0.20810185   -1.3917883  0.033033264   -2.5677038    0.1192032 
    1600    901.02397    30.940826   -3.8513802   0.19212561   -1.4254257  0.042941549   -2.6194968   0.11637095 
    1700    903.31137      7.57032   -3.9584519   0.19879568   -1.4450284     0.037058   -2.6821523   0.11666637 
    1800    890.90211   -9.3034951    -3.973875   0.19338033   -1.4433832  0.039150904   -2.6889083   0.11506367 
    1900    911.84831   -69.658769   -4.0125136   0.19140121   -1.4674987  0.046396819   -2.7201722   0.11776895 
    2000      925.716    18.283792   -4.0814906   0.19727039   -1.4865341  0.044234956   -2.7637892   0.11956002 
    2100      958.185   -17.188564   -4.1486089   0.20328046   -1.5012205  0.046667654   -2.8042828   0.12375353 
    2200    890.69239   -31.922018   -4.1764994    0.1765356   -1.5244228  0.055425251   -2.8297927   0.11503658 
    2300    899.48169    37.129075   -4.2641089   0.18804723   -1.5458332   0.04650247   -2.8837868   0.11617175 
    2400    895.78239   -5.4516307   -4.3119827   0.17629598   -1.5754641  0.056952131    -2.922397   0.11569397 
    2500    886.57977    3.7761789   -4.3882271    0.1762717   -1.6046176  0.054635037   -2.9747289   0.11450542 
    2600     914.4361    8.9787733   -4.4207765   0.17719898   -1.6182207  0.060821306   -2.9976575   0.11810318 
    2700    925.49157    17.517119   -4.4444013   0.16410743   -1.6599149  0.076322901   -3.0304578   0.11953104 
    2800    917.50787   -65.425952   -4.4964437   0.16733934   -1.6690427  0.071159591   -3.0607085   0.11849991 
    2900    912.75812    7.7825843   -4.5355833   0.16668651   -1.6904539  0.070584311   -3.0908457   0.11788646 
    3000    928.20469    48.145027   -4.5514666   0.15928443   -1.7209486  0.081687927   -3.1141486   0.11988145 
    3100    901.96951   -1.0777199   -4.5899435   0.15560623    -1.737137   0.07858047   -3.1413075   0.11649307 
    3200     898.7825   -12.547189    -4.608018   0.15239227   -1.7614671  0.080885183   -3.1625586   0.11608145 
    3300    901.59706   -60.098367   -4.6336625   0.14569207   -1.7916797   0.08809559   -3.1905228   0.11644496 
    3400    918.10171   -17.040622   -4.6542785   0.14473374    -1.816706  0.093222357   -3.2133782   0.11857661 
    3500     904.5701    58.881095    -4.694028   0.13372707   -1.8576501    0.1004495   -3.2537344   0.11682894 
    3600    909.72853   -11.240539   -4.7247219   0.12477513   -1.8990301   0.11043868   -3.2898546   0.11749518 
    3700     939.1744   -38.843306   -4.7692668   0.14355765   -1.9198497   0.09972206    -3.322352   0.12129823 
    3800     890.8061    10.788429   -4.7921816   0.13297207   -1.9470163  0.097680531   -3.3474258   0.11505127 
    3900    898.82797    24.328452   -4.8204209    0.1297161   -1.9804381   0.10287687   -3.3782967   0.11608732 
    4000     893.3597    -31.64046   -4.8412207   0.11932729   -2.0175733   0.11155599   -3.4073915   0.11538107 
    4100    898.90696   -47.391325   -4.8619339   0.11523969   -2.0667383   0.11692904   -3.4425523   0.11609753 
    4200    874.29098   -28.745048   -4.8740453   0.10415693   -2.0978084   0.12141068   -3.4642908   0.11291827 
    4300    902.90234   -53.324081    -4.871861   0.09771134   -2.1225654   0.13493555   -3.4757872   0.11661354 
    4400      925.979    25.509619   -4.8965253  0.098056944   -2.1850692   0.14046996   -3.5196662   0.11959399 
    4500    910.58266    29.495159   -4.9224463  0.093756501   -2.2317756   0.14072244   -3.5561418   0.11760549 
    4600    887.55667    54.484224   -4.9300018   0.08267902   -2.2765491   0.14560338   -3.5825964   0.11463159 
    4700     908.0333    54.168203   -4.9483812  0.081874177   -2.3267791   0.15159163   -3.6171493   0.11727623 
    4800    923.50216    50.222745   -4.9810898  0.086620847   -2.3863123   0.15092507   -3.6634793    0.1192741 
    4900    904.11878    33.938653   -4.9987737  0.082577359   -2.4454155    0.1499144   -3.7021956   0.11677065 
    5000    909.53968    11.118808   -5.0103822  0.076176033   -2.4903673   0.15749801   -3.7307356   0.11747078 
    5100    915.88215    16.315819   -5.0227135  0.073900012   -2.5323667   0.16131734   -3.7581322   0.11828994 
    5200    905.38005    30.037316    -5.028866  0.066553241   -2.5901631   0.16576746   -3.7905091   0.11693355 
    5300    906.30213    35.069286   -5.0295141  0.062222604   -2.6161814   0.17019969     -3.80404   0.11705264 
    5400    899.64691    26.756209   -5.0366153  0.055946591   -2.6702522   0.17459035    -3.834992   0.11619309 
    5500    894.99281    1.2153474   -5.0465578  0.056642452   -2.7054561    0.1727321   -3.8577621     0.115592 
    5600    916.64423   -50.012175   -5.0447732  0.053752897   -2.7216166   0.18103987   -3.8650899   0.11838837 
    5700    904.11381   -68.327835   -5.0498889  0.049763453   -2.7781404   0.18171983   -3.8963103   0.11677001 
    5800    863.68894   -27.827821    -5.055709  0.045956522   -2.8290985   0.17512809   -3.9250512   0.11154897 
    5900    900.11543   -4.5054758   -5.0617783  0.050031355    -2.865134   0.18044318   -3.9463371    0.1162536 
    6000    871.30018    20.027751   -5.0641206   0.04539112   -2.9028423   0.17761201    -3.966638     0.112532 
    6100    870.30835    38.019091   -5.0659864  0.041883583   -2.9554007   0.18075962   -3.9942452    0.1124039 
    6200    881.06786    43.402921   -5.0707648  0.042843993   -2.9868931    0.1825653   -4.0125888   0.11379353 
    6300    917.84831     27.57271   -5.0798574  0.049695934   -3.0132719   0.18527856   -4.0304592   0.11854388 
    6400    898.39032   -1.5441529   -5.0798803  0.039606148   -3.0685162   0.19010962   -4.0585231    0.1160308 
    6500     885.8253   -54.323867   -5.0842438  0.038570183   -3.1193474   0.18791795   -4.0864826   0.11440798 
    6600    867.93056   -106.09343   -5.0868898  0.038985293   -3.1581542   0.18296417   -4.1074908    0.1120968 
    6700    878.69485   -7.7389581   -5.0911294  0.041775622   -3.1947443   0.18299732   -4.1281578   0.11348705 
    6800    914.11136    7.8749943   -5.0995281   0.04601501   -3.2295573   0.18789603   -4.1499695   0.11806124 
    6900    908.60637    16.329021    -5.102127  0.044869666   -3.2603688   0.18760606   -4.1668946   0.11735025 
    7000    899.66291   -25.595436   -5.1074921  0.044563876    -3.284472   0.18562774   -4.1817748   0.11619516 
    7100    906.96207   -28.600566   -5.1116169  0.047465606   -3.3009948   0.18467158   -4.1921952   0.11713788 
    7200    893.13104    10.789185   -5.1098487  0.044323168   -3.3236299   0.18419972   -4.2028188   0.11535154 
    7300    942.97796    59.149237   -5.1184429  0.048119378   -3.3603893    0.1931983   -4.2257151   0.12178948 
    7400    847.96275    35.239701   -5.1169096  0.045317896   -3.3666507   0.17174725   -4.2281399   0.10951787 
    7500    909.40454   -64.777617   -5.1182318  0.050397941   -3.3658076   0.18245048   -4.2283626   0.11745333 
    7600    893.62308   -32.969618   -5.1192557  0.045116384   -3.3973985     0.183556   -4.2449082   0.11541509 
    7700    937.67403     17.32757   -5.1298472  0.051664432   -3.4332194   0.18841303    -4.268311   0.12110445 
    7800    921.57899   -11.916916   -5.1324238  0.052835165   -3.4374907   0.18318456   -4.2717482   0.11902571 
    7900    895.27383   -6.1597245   -5.1319408  0.050310085   -3.4529698   0.17894158   -4.2793707   0.11562829 
    8000    911.07874    10.345766   -5.1371567  0.050298552   -3.4758356   0.18297264   -4.2935491   0.11766956 
    8100    896.23151    47.650029   -5.1385669  0.051811442   -3.4903773   0.17772988   -4.3016273   0.11575198 
    8200     875.9051    -5.064797   -5.1378931  0.048273667   -3.5066561   0.17598917   -4.3095619   0.11312674 
    8300    942.91493   -83.196877   -5.1500628   0.06101118   -3.5159889   0.18068617    -4.320291   0.12178134 
    8400    901.36991     53.88933   -5.1694464  0.065115299   -3.5362353   0.16614131   -4.3401128   0.11641563 
    8500    877.90487    18.606646    -5.174327  0.066135899   -3.5467509   0.15918384   -4.3478548   0.11338502 
    8600    900.80753   -21.415514    -5.177625   0.07062731   -3.5554057   0.16065545    -4.353873   0.11634299 
    8700    932.17339   -3.6107533   -5.1758094  0.071074617   -3.5682402   0.16819959   -4.3594966   0.12039402 
    8800    889.07059    22.629007   -5.1762564  0.066700155   -3.5884267   0.16147684   -4.3699671   0.11482712 
    8900    878.48954   -41.952468   -5.1806489  0.069216614   -3.6017476    0.1563464   -4.3788934   0.11346053 
    9000    883.50795   -22.632717   -5.1845664  0.069060352    -3.612547   0.15777426   -4.3863055   0.11410868 
    9100     905.8078    52.282573   -5.1873005  0.070517287   -3.6207626   0.16203388   -4.3918231    0.1169888 
    9200    927.67016   -6.3865966   -5.1896034  0.075823788   -3.6111857   0.16245082   -4.3880935   0.11981241 
    9300    893.20279   -49.261324   -5.1886002  0.072342705   -3.6154447   0.15705849   -4.3897624   0.11536081 
    9400    872.48528     37.94858   -5.1900905  0.073934818   -3.6281918   0.15024587   -4.3969688   0.11268506 
    9500    908.40892    45.335904   -5.1923543  0.077374918   -3.6395531   0.15604832   -4.4038523   0.11732474 
    9600    881.77711   -77.362327   -5.1988782  0.079302455   -3.6402586   0.14740631   -4.4074216   0.11388514 
    9700     903.2198    5.5984612   -5.1998371  0.076106777   -3.6555098   0.15595772    -4.415638   0.11665455 
    9800    908.35238    20.463105   -5.2009495    0.0771244   -3.6598679   0.15627677   -4.4183986   0.11731744 
    9900    878.84481   -38.267833   -5.2165774  0.084955841   -3.6696378   0.14118064   -4.4310518   0.11350642 
   10000    873.80611   -31.181846   -5.2116545  0.082041128   -3.6784369   0.14272433   -4.4330969   0.11285565 
   10100    923.17055    109.98033   -5.2173827  0.085290947   -3.6844419    0.1521298   -4.4389657   0.11923127 
   10200    872.15676    16.163593   -5.2225216  0.077940442   -3.6948759   0.14627964   -4.4467934   0.11264263 
   10300    892.18859   -30.466793   -5.2403526  0.087497276   -3.7083521   0.14211112   -4.4624131   0.11522982 
   10400    898.66071    26.651262   -5.2498233  0.092376741   -3.7194503   0.13902758   -4.4727102   0.11606572 
   10500    891.53873    26.680081   -5.2464357  0.085746071   -3.7342815   0.14364329    -4.478574   0.11514589 
   10600    884.05059   -36.688976   -5.2523818  0.088821779   -3.7312951   0.13875743   -4.4799842   0.11417876 
   10700     877.7113    6.8941932   -5.2482761  0.081161125   -3.7370506   0.14457058    -4.480886   0.11336002 
   10800    928.85872    52.769804   -5.2570848  0.086695265   -3.7616446   0.15221534   -4.4977103   0.11996592 
   10900    939.39592   -54.161912   -5.2655612  0.088641754   -3.7759079   0.15300867   -4.5091253   0.12132684 
   11000    900.35253    37.711889   -5.2583054  0.083344887    -3.765676   0.14821251   -4.5003582   0.11628423 
   11100    960.24813    6.5452079   -5.2591554  0.093505313   -3.7603716   0.15359803   -4.4980831   0.12401999 
   11200      863.521   -40.239651   -5.2594703  0.083595409   -3.7710511    0.1386018   -4.5036611   0.11152728 
   11300    877.60989    69.140118   -5.2588459  0.080528837   -3.7874575   0.14515767   -4.5116848   0.11334692 
   11400     912.6083   -36.732716   -5.2603891  0.081625935   -3.7934665   0.15299587   -4.5154957   0.11786711 
   11500    912.00793    -32.87137   -5.2642215   0.08683666   -3.7957341   0.14779239   -4.5185335   0.11778957 
   11600    895.55484    82.878808   -5.2748318  0.091712467   -3.8034552    0.1388815   -4.5276767   0.11566459 
   11700    888.07774   -27.424682   -5.2811914  0.089632606   -3.8076323   0.13899577    -4.532928   0.11469889 
   11800    886.07472   -27.007877   -5.2811855  0.087726072   -3.8121509   0.14033433   -4.5352196   0.11444019 
   11900    956.52887    32.481249    -5.279811  0.096988116    -3.816036   0.14927616   -4.5365159   0.12353963 
   12000    889.03937   -2.8047841   -5.2938489  0.093930445   -3.8238518   0.13507443   -4.5473943   0.11482309 
   12100    920.83636   -22.893052   -5.3038113  0.098424823   -3.8347451   0.13880538   -4.5578293    0.1189298 
   12200    912.31737    17.930822   -5.3092356  0.098476799   -3.8387651   0.13658825   -4.5625406   0.11782954 
   12300    904.58579    13.166012   -5.3145779   0.10051722   -3.8361652   0.13264398   -4.5638499   0.11683097 
   12400    918.51061    -64.94886   -5.3172181   0.10106621   -3.8488023   0.13565353   -4.5715665   0.11862942 
   12500    912.26858    60.792026   -5.3168907  0.096632482   -3.8543172   0.13836354   -4.5742057   0.11782323 
   12600    882.81781    37.697261   -5.3171477  0.095468985    -3.855352    0.1320007   -4.5748577   0.11401955 
   12700    891.20742   -58.797955   -5.3170497  0.099573255    -3.856721   0.13015626   -4.5755046    0.1151031 
   12800    939.05098    35.513766   -5.3191133   0.10244887   -3.8614382   0.13953763   -4.5789157   0.12128229 
   12900    932.15396   -28.822057   -5.3162167  0.094915878   -3.8640406   0.14508518   -4.5788114   0.12039151 
   13000    906.13942    -16.80168   -5.3191896  0.097781893   -3.8607467    0.1356905   -4.5786021   0.11703163 
   13100    928.99272    87.677338   -5.3268774  0.098120436   -3.8736643   0.14117494   -4.5889456   0.11998322 
   13200    888.22802   -21.271889   -5.3290165  0.096410978   -3.8793806   0.13246368   -4.5929011    0.1147183 
   13300    900.34163   -5.8467658   -5.3289044   0.10170532   -3.8757092   0.13041287   -4.5909817   0.11628282 
   13400    938.95646    21.127676   -5.3245624   0.09776905   -3.8903182   0.14404976   -4.5962628   0.12127008 
   13500    880.12761   -49.593335   -5.3270608  0.093090798   -3.8974712   0.13362166   -4.6011248    0.1136721 
   13600     932.3673    37.018611    -5.326848   0.10071893   -3.8859169   0.13951451   -4.5951529   0.12041907 
   13700    928.88702    11.320654   -5.3282821   0.10232866   -3.8883272   0.13706901   -4.5970827   0.11996957 
   13800    871.96753   -44.105976   -5.3349508  0.093081148   -3.9040848   0.13155554   -4.6083667   0.11261819 
   13900     915.3861    40.015847   -5.3393127  0.095114739   -3.9060745   0.14062762    -4.611524   0.11822587 
   14000     902.1782   -3.5335176   -5.3401094  0.095320245   -3.9052433   0.13706907    -4.611494   0.11652002 
   14100    902.13504    2.9475722   -5.3400038  0.098470791   -3.9104325   0.13400426   -4.6140771   0.11651445 
   14200    898.37396    5.9479069   -5.3450547   0.10153293   -3.9124039   0.13007951   -4.6175643   0.11602869 
   14300    916.80814   -36.824819    -5.353936   0.10581936   -3.9128544   0.13061326   -4.6221644   0.11840954 
   14400    946.06723    79.127436   -5.3624419   0.11286629   -3.9154966   0.13122451   -4.6276928   0.12218847 
   14500    900.22212   -53.224207   -5.3579576   0.10626684   -3.9184176   0.12596097   -4.6269689   0.11626738 
   14600    883.46283   -8.5382501   -5.3602603   0.10752594    -3.920574   0.12047789   -4.6291973   0.11410285 
   14700    912.71169    30.738502   -5.3616205   0.10900293   -3.9297555   0.12648551   -4.6345291   0.11788046 
   14800    903.29797   -20.146806   -5.3621161   0.10729894   -3.9332939   0.12574287   -4.6365698   0.11666464 
   14900    896.97696    7.0781951   -5.3640354    0.1049115   -3.9422053   0.12644932   -4.6420397   0.11584826 
   15000    915.17837   -1.2032863   -5.3690197    0.1092608   -3.9422904   0.12686293   -4.6445362   0.11819905 
   15100     904.1748    -87.15272    -5.367344   0.10898691   -3.9355765   0.12432973   -4.6403021   0.11677789 
   15200    906.84426    92.429826   -5.3737616     0.109528   -3.9451685   0.12448421   -4.6483316   0.11712266 
   15300    918.24081   -38.303172   -5.3766024   0.10900988    -3.950338   0.12788506   -4.6523549   0.11859457 
   15400    881.91661   -9.0150885   -5.3755837   0.10520575    -3.946028   0.12233359   -4.6496649   0.11390315 
   15500    914.37725    35.425662   -5.3750363      0.10811   -3.9472632   0.12777465   -4.6500227   0.11809558 
   15600    879.25623   -42.804743   -5.3785347   0.10045969   -3.9549442   0.12625733    -4.655645   0.11355955 
   15700    879.71083    60.508893   -5.3788082   0.10643462   -3.9455936   0.12058142   -4.6510315   0.11361827 
   15800    924.25464   -55.235681    -5.385695    0.1096396   -3.9558449   0.12880425   -4.6596267   0.11937128 
   15900    890.68558   -6.3103536   -5.3846394   0.10049481   -3.9677319   0.12913026   -4.6651433    0.1150357 
   16000    916.08113    101.89311   -5.3870367   0.10724098   -3.9700279   0.12905037   -4.6674891   0.11831564 
   16100    899.64691   -57.260471   -5.3846198   0.10708198   -3.9653661   0.12502454   -4.6639323   0.11619309 
   16200     871.0067    25.276937   -5.3815072   0.10274069   -3.9624923   0.12194812    -4.660941   0.11249409 
   16300    930.51943   -4.8656882   -5.3897123   0.10972181   -3.9691864   0.13031798   -4.6683788   0.12018041 
   16400    897.29285    -51.27556   -5.3944351   0.10806497   -3.9745652   0.12347298   -4.6734347   0.11588906 
   16500    896.38345    104.37254   -5.3931026   0.10428756   -3.9761348   0.12690315   -4.6735759    0.1157716 
   16600    888.56174   -60.354153   -5.3906177   0.10644468   -3.9754903   0.12282284   -4.6720255    0.1147614 
   16700    913.91685    7.8769843   -5.3923343   0.11181094   -3.9778743   0.12407021    -4.674081   0.11803611 
   16800    940.32956    38.833925   -5.3945832   0.11469822   -3.9780801   0.12798947   -4.6752925   0.12144743 
   16900    895.38428   -20.861704   -5.3927357   0.10671508   -3.9815098   0.12429601   -4.6761247   0.11564256 
   17000    883.47245    15.008341   -5.4043386   0.11054611   -3.9844723   0.11755287     -4.68334    0.1141041 
   17100    901.36829     -15.6984   -5.4126952   0.11810604   -3.9882981   0.11477669   -4.6893959   0.11641542 
   17200    917.20309    8.8971617   -5.4081627   0.11279836   -3.9971536   0.12394893   -4.6916618   0.11846055 
   17300    888.70452    46.873706   -5.4143355   0.11315161   -3.9944367   0.11635809   -4.6933204   0.11477984 
   17400    886.02197   -76.425791   -5.4077622   0.10747121   -3.9910919   0.12118184   -4.6883866   0.11443338 
   17500    919.48425    59.323718   -5.4179124    0.1178825   -3.9907911   0.11960105   -4.6932298   0.11875517 
   17600    891.62191   -5.2109169   -5.4081221   0.10846885    -3.993048   0.12163913   -4.6895569   0.11515663 
   17700    906.45793   -18.772117   -5.4157128   0.11697095   -3.9890111   0.11717145   -4.6912433   0.11707276 
   17800    885.62032    14.905779   -5.4092402   0.10698347   -3.9970202   0.12155245   -4.6921244    0.1143815 
   17900    882.68685   -18.274281   -5.4101157   0.10963736   -3.9951294   0.11823391   -4.6915952   0.11400263 
   18000    904.71808    11.143014   -5.4129275     0.110513   -3.9957012   0.12298866   -4.6932695   0.11684806 
   18100    917.96499    48.662831   -5.4186972   0.11208916   -4.0014661   0.12483015   -4.6990368   0.11855895 
   18200    905.03062   -59.400356   -5.4128035   0.10855276   -3.9972792   0.12496822   -4.6940098   0.11688842 
   18300    927.98489    65.161039   -5.4177167   0.11382963   -4.0068487   0.12569161   -4.7012874   0.11985306 
   18400    884.34553   -31.761763   -5.4177793   0.11007519   -4.0035273    0.1182314   -4.6996316   0.11421686 
   18500    899.51573   -1.1340308   -5.4175467   0.11562026   -4.0002191   0.11671498   -4.6978373   0.11617615 
   18600    941.24856    11.427184   -5.4167086   0.11498966   -4.0088316   0.12794071   -4.7017981   0.12156612 
   18700    921.33848     -17.0569   -5.4161086   0.11009772   -4.0117999   0.12761849   -4.7030101   0.11899465 
   18800     884.6884    37.627301   -5.4174855   0.10705029   -4.0089258   0.12125066   -4.7022283   0.11426114 
   18900    910.26613   -47.846911   -5.4160964   0.10821348   -4.0132291   0.12662871   -4.7037298   0.11756461 
   19000    929.61927    1.8098105   -5.4223758   0.11124077   -4.0141822   0.12861669   -4.7073046   0.12006415 
   19100    880.05006    83.722316    -5.419593   0.10305293   -4.0158724   0.12394559   -4.7067932   0.11366208 
   19200    914.33471   -47.633919   -5.4177185    0.1079394     -4.01725   0.12792919     -4.70657   0.11809008 
   19300    900.91453    23.433599    -5.431794   0.11625545   -4.0106889   0.11645506   -4.7101664   0.11635681 
   19400    882.36946    18.804242    -5.429368   0.10772745   -4.0256096   0.12000447   -4.7165489   0.11396164 
   19500    918.44295   -34.140087   -5.4330279   0.11285074   -4.0340142   0.12421351   -4.7226181   0.11862068 
   19600     918.6195     50.57957   -5.4365525   0.12129987   -4.0215294   0.11606863   -4.7180133   0.11864348 
   19700    889.21682   -32.571674   -5.4419973   0.11484185   -4.0330991   0.11485003   -4.7265683     0.114846 
   19800    920.67085    17.094662   -5.4414982    0.1094769   -4.0472898   0.12805044   -4.7335286   0.11890842 
   19900    894.83584    42.973982   -5.4487629   0.11538382   -4.0395763   0.11575386   -4.7331874   0.11557172 
   20000    908.44818   -47.859166   -5.4492511   0.11965444   -4.0384703   0.11507654   -4.7328661   0.11732981 
   20100    939.10812    17.131463   -5.4507838   0.11944836   -4.0549795   0.12307446   -4.7420038   0.12128967 
   20200    851.43275   -7.4807952   -5.4610167   0.11040034   -4.0603404   0.10954506   -4.7497627   0.10996604 
   20300    918.14333   -9.8222502   -5.4605482   0.11818029   -4.0582057   0.11897134   -4.7484481   0.11858198 
   20400    901.77791    70.982808    -5.462662   0.11566002   -4.0613489   0.11725181   -4.7510846   0.11646832 
   20500    931.21952   -135.47601   -5.4701753   0.12341601   -4.0670175   0.11722219   -4.7576612   0.12027083 
   20600    909.28547    69.780056    -5.474946   0.11903871   -4.0717125   0.11588633   -4.7623934   0.11743795 
   20700    882.95819    -29.21168   -5.4735028   0.11582128   -4.0712694   0.11230882   -4.7614581   0.11403768 
   20800    898.70683    21.060854   -5.4707895   0.11885581   -4.0702479     0.113373   -4.7596039   0.11607168 
   20900    911.00027    48.619613    -5.474422   0.11683649   -4.0791116    0.1184571   -4.7658927   0.11765943 
   21000     887.4324   -108.66993   -5.4764041   0.11268315   -4.0785641   0.11648862   -4.7665903   0.11461554 
   21100    874.32909    88.115335   -5.4752654   0.11159794   -4.0766354   0.11420777   -4.7650505   0.11292319 
   21200    919.64761   -39.724853   -5.4739244   0.11781154   -4.0783252   0.11971138   -4.7652485   0.11877627 
   21300    916.10195    27.246548   -5.4724126   0.11455778   -4.0800067   0.12196345   -4.7653583   0.11831833 
   21400    902.04943   -49.618266   -5.4670599   0.11219125   -4.0800832   0.12068317   -4.7627624   0.11650339 
   21500    897.26803    1.2165781   -5.4735848   0.11361839   -4.0726503   0.11808371   -4.7621997   0.11588585 
   21600    871.04305    34.529372     -5.47461   0.10894641   -4.0770107   0.11594212   -4.7649185   0.11249879 
   21700    882.40458   -49.533219   -5.4702771   0.10638826   -4.0873958   0.12131149   -4.7680593   0.11396618 
   21800    915.88443    123.58948   -5.4745962   0.11589755   -4.0856613   0.12060948   -4.7693044   0.11829024 
   21900    898.52876   -124.31786   -5.4774652    0.1152912   -4.0879479   0.11678291   -4.7718776   0.11604868 
   22000    889.86254    36.857282   -5.4815835   0.11279746   -4.0896602   0.11699591   -4.7747742    0.1149294 
   22100    905.72543   -19.143983   -5.4796427   0.11509487   -4.0877457   0.11880364   -4.7728468   0.11697816 
   22200    905.78546   -19.245894   -5.4875244   0.11749681   -4.0956326   0.11649069   -4.7807311   0.11698591 
   22300    891.44478    72.538004   -5.4871077   0.11205193   -4.0958309   0.11812098   -4.7806267   0.11513375 
   22400    928.39224   -111.36043    -5.494069   0.12517689   -4.0993693   0.11479625   -4.7858499   0.11990567 
   22500    873.07453    95.545204   -5.4828837    0.1091781   -4.0986366   0.11623424   -4.7799723   0.11276116 
   22600    933.59858   -41.375015   -5.4928099    0.1219154   -4.0964812   0.11928183   -4.7837636   0.12057809 
   22700    890.01853    10.603805    -5.497681   0.11895009   -4.0950146    0.1110718   -4.7854165   0.11494955 
   22800    905.13685    45.040145   -5.5009494   0.12171803   -4.0993437   0.11223407   -4.7892235   0.11690214 
   22900    887.07187   -25.216449    -5.490349   0.11258657   -4.1061382   0.11649053   -4.7874561   0.11456898 
   23000    912.72716    17.858621   -5.4988756   0.12194401   -4.1032192   0.11394558   -4.7901707   0.11788246 
   23100    915.43093   -24.743325   -5.4961955   0.12073806   -4.1042812    0.1158022   -4.7893908   0.11823166 
   23200    881.66296    90.098209    -5.499125   0.11421604   -4.1052095   0.11353536   -4.7913041   0.11387039 
   23300    874.07839   -97.102655   -5.4927332   0.11175604   -4.1037094   0.11399076   -4.7873963   0.11289081 
   23400    922.98182    52.815857   -5.5090643   0.12451812   -4.1067972    0.1140587   -4.7970025   0.11920689 
   23500    941.65748     -4.94913   -5.5126341   0.12776268   -4.1046219   0.11566377    -4.797655   0.12161893 
   23600    869.41635   -21.158945   -5.5140188    0.1161332   -4.1086705   0.10856219   -4.8003924   0.11228869 
   23700     910.9724    45.508375   -5.5091191    0.1206048   -4.1076982   0.11479737    -4.797487   0.11765583 
   23800    879.81191   -18.288784   -5.5012785   0.11774865    -4.105057   0.10964037   -4.7922866   0.11363132 
   23900    913.42625    21.888226   -5.5072222    0.1199018   -4.1115191   0.11610292   -4.7984936   0.11797275 
   24000     889.8823   -5.8009497   -5.5078719   0.11549832   -4.1130344   0.11438297   -4.7995828   0.11493195 
   24100    895.35942   -25.502347   -5.5076126   0.12063416   -4.1070984   0.11079785   -4.7964409   0.11563935 
   24200     883.8788     61.90469   -5.5028175   0.11711561   -4.1069048   0.11128837   -4.7939824   0.11415658 
   24300    897.57897    -68.96452   -5.5118475   0.12424127   -4.1096119   0.10786599   -4.7998017   0.11592601 
   24400    912.87651    57.079936   -5.5057918   0.11841118    -4.116191   0.11740796   -4.8001618   0.11790175 
   24500    892.93271   -26.448004    -5.510992   0.11555125   -4.1173647   0.11510752   -4.8033174   0.11532593 
   24600    908.44255   -7.1749377   -5.5087904   0.11964789   -4.1146189   0.11508146   -4.8008395   0.11732909 
   24700    914.18791     22.27455   -5.5134247   0.12261939   -4.1144213   0.11366246   -4.8030202   0.11807112 
   24800    874.80955   -38.966586   -5.5143278   0.11565689    -4.121776   0.11039561   -4.8071994   0.11298525 
   24900    902.91016    83.086165   -5.5132991   0.11972403   -4.1195905   0.11360053   -4.8055833   0.11661456 
   25000     892.1543   -127.60565   -5.5063663   0.11509835   -4.1172849   0.11534853   -4.8010001   0.11522539 
   25100    899.47213    45.335332   -5.5195539   0.12126771    -4.119285   0.11122979   -4.8085068   0.11617052 
   25200    884.12165   -27.984431    -5.504076    0.1139703   -4.1178667    0.1143989   -4.8001682   0.11418794 
   25300     885.2098    43.779718   -5.5035234   0.11389622   -4.1164648   0.11474747   -4.7991844   0.11432848 
   25400    908.33966   -16.994011   -5.5125487    0.1246831   -4.1174059   0.11017463   -4.8041045    0.1173158 
   25500    935.63376   -20.082237   -5.5151672   0.12934582   -4.1156824   0.11259712   -4.8045183   0.12084094 
   25600    885.74825    14.700288   -5.5077562   0.11740859    -4.119635   0.11147987   -4.8028776   0.11439802 
   25700    890.00968     -12.4754   -5.5061342   0.11507866   -4.1201435   0.11482215   -4.8023374   0.11494841 
   25800    917.91238    30.968456   -5.5049839   0.11382555   -4.1244128   0.12313367   -4.8039392   0.11855215 
   25900     896.9285   -82.485039   -5.5162041   0.11911384   -4.1292245   0.11267059   -4.8119052     0.115842 
   26000    910.38287    66.398051   -5.5210253   0.12351458      -4.1316   0.11182696   -4.8154845   0.11757969 
   26100    905.85592   -33.201432   -5.5174703   0.11738365   -4.1319005    0.1166183   -4.8138873   0.11699501 
   26200    893.17289     17.50716   -5.5167618   0.11692533   -4.1336605   0.11383671   -4.8144323   0.11535695 
   26300    868.42562   -6.7692809   -5.5158447   0.11645312   -4.1321042   0.10800011   -4.8131906   0.11216074 
   26400    916.25404    4.4301404     -5.51742   0.12278381   -4.1330764   0.11402859   -4.8144596   0.11833797 
   26500     935.1014   -12.964262   -5.5179627   0.12176122   -4.1429513   0.11981351   -4.8197411   0.12077219 
   26600     902.0087    16.900024   -5.5274176   0.12277448   -4.1430166   0.11041443   -4.8244281   0.11649813 
   26700    889.29516   -47.914299   -5.5232139   0.12150319   -4.1362248   0.10841308   -4.8189102   0.11485612 
   26800    919.45697    42.759012   -5.5265398   0.12707125   -4.1395549   0.11068741   -4.8222382   0.11875164 
   26900    893.30154   -14.273059   -5.5261969   0.12028562   -4.1429678   0.11061228   -4.8238025   0.11537356 
   27000    879.62198    6.6336393   -5.5285994   0.11895751   -4.1419587   0.10842031   -4.8244726   0.11360679 
   27100    906.02028    21.116002   -5.5296305    0.1212959   -4.1448712   0.11286794    -4.826459   0.11701624 
   27200    881.81676   -17.956796   -5.5290977   0.11384704   -4.1507426   0.11393215   -4.8291783   0.11389026 
   27300    892.08366    11.299349   -5.5316072   0.11901424   -4.1468313   0.11153487   -4.8284273   0.11521627 
   27400    905.38376   -1.1391162   -5.5245593   0.11947912   -4.1416978   0.11446706   -4.8223516   0.11693403 
   27500    912.62041   -6.9060975   -5.5340503   0.12304703   -4.1454262   0.11284927   -4.8289163   0.11786867 
   27600    870.72783    8.5094843   -5.5296355   0.11113525   -4.1528078   0.11374029   -4.8304916   0.11245808 
   27700    888.82352    9.0686008   -5.5392234   0.11865969   -4.1492658   0.11104935   -4.8334123   0.11479521 
   27800    914.40589   -28.513672   -5.5307499   0.11806402   -4.1462282   0.11813345   -4.8276991   0.11809928 
   27900    909.57281    53.732012   -5.5330725   0.11885647   -4.1472399   0.11613606    -4.829356   0.11747506 
   28000    896.11762   -51.516951   -5.5359611   0.11779331   -4.1497337   0.11374434   -4.8320442   0.11573727 
   28100    915.70033    7.2486821   -5.5354403   0.11959602   -4.1527144   0.11697771   -4.8333014   0.11826646 
   28200     915.6031   -2.3088079   -5.5389327   0.12226161   -4.1487656   0.11436921   -4.8330152    0.1182539 
   28300    886.53675    6.0594656   -5.5399546    0.1185829   -4.1503527   0.11054215   -4.8343241   0.11449986 
   28400     953.1026    12.414986   -5.5428523   0.12582483   -4.1555964   0.12045313   -4.8384131   0.12309712 
   28500    878.55659   -25.922569    -5.545264   0.11989728   -4.1541486   0.10723841   -4.8388649   0.11346919 
   28600    892.34367     37.85837   -5.5409234   0.12020071   -4.1521807   0.11045096   -4.8357292   0.11524985 
   28700     899.7529   -47.126568   -5.5392506   0.11933053   -4.1552271   0.11317892   -4.8364528   0.11620678 
   28800    944.66442    58.808442   -5.5389179   0.12564238   -4.1570922   0.11848378   -4.8372361   0.12200729 
   28900    884.38947   -35.583958   -5.5464679      0.12046   -4.1574677   0.10817653    -4.841143   0.11422253 
   29000    900.33859    17.662498   -5.5420877   0.11735238   -4.1616988   0.11524532   -4.8411355   0.11628243 
   29100     905.7135   0.87966001   -5.5378609   0.11589935   -4.1626932   0.11802082     -4.83956   0.11697662 
   29200    912.58466   -15.864789   -5.5457791   0.12685134   -4.1554764   0.10915264   -4.8397927   0.11786406 
   29300     920.5658    20.288085   -5.5462525   0.12752996   -4.1583761    0.1105248   -4.8414982   0.11889485 
   29400    893.12162   -25.739069   -5.5492941   0.11896847   -4.1673867   0.11184324   -4.8475708   0.11535033 
   29500    905.25593    37.606819   -5.5474685   0.12106201   -4.1687624   0.11290025   -4.8473708   0.11691752 
   29600    883.63083   -51.083629   -5.5463485   0.12211939   -4.1614278   0.10637511   -4.8430951   0.11412455 
   29700    894.65734    23.979218   -5.5431839   0.11654865   -4.1653201   0.11457939   -4.8435139   0.11554867 
   29800    911.10459   -4.8820418   -5.5476553   0.11988525   -4.1676013   0.11552846   -4.8468732    0.1176729 
   29900    915.32338   -5.4209575   -5.5460555   0.12127461    -4.164405   0.11525477   -4.8444627   0.11821777 
   30000     867.2696    8.5697384    -5.546382   0.11355672   -4.1664657   0.11051357   -4.8456698   0.11201143 
Loop time of 61.0275 on 4 procs for 30000 steps with 1219 atoms

Performance: 4.247 ns/day, 5.651 hours/ns, 491.582 timesteps/s
99.5% CPU use with 4 MPI tasks x 1 OpenMP threads

MPI task timing breakdown:
Section |  min time  |  avg time  |  max time  |%varavg| %total
---------------------------------------------------------------
Pair    | 2.2724     | 31.144     | 57.901     | 430.3 | 51.03
Neigh   | 0.08059    | 0.12631    | 0.16123    |   9.0 |  0.21
Comm    | 1.0481     | 27.904     | 56.869     | 456.0 | 45.72
Output  | 0.4493     | 0.45051    | 0.45228    |   0.2 |  0.74
Modify  | 0.8198     | 1.0443     | 1.3537     |  20.2 |  1.71
Other   |            | 0.3583     |            |       |  0.59

Nlocal:        304.750 ave         525 max          10 min
Histogram: 1 0 0 1 0 0 0 0 0 2
Nghost:        292.000 ave         414 max         123 min
Histogram: 1 0 0 0 1 0 0 0 1 1
Neighs:         0.00000 ave           0 max           0 min
Histogram: 4 0 0 0 0 0 0 0 0 0
FullNghs:      8425.50 ave       14379 max         119 min
Histogram: 1 0 0 1 0 0 0 0 0 2

Total # of neighbors = 33702
Ave neighs/atom = 27.647252
Neighbor list builds = 97
Dangerous builds = 10
write_data SiC.data1_$t_$p_dt:${dt}
write_data SiC.data1_900_$p_dt:${dt}
write_data SiC.data1_900_1_dt:${dt}
write_data SiC.data1_900_1_dt:0.0001
System init for write_data ...
WARNING: More than one compute ke/atom (src/compute_ke_atom.cpp:56)
WARNING: More than one compute ke/atom (src/compute_ke_atom.cpp:56)
WARNING: More than one compute ke/atom (src/compute_ke_atom.cpp:56)
Neighbor list info ...
  update every 1 steps, delay 100 steps, check yes
  max neighbors/atom: 2000, page size: 100000
  master list distance cutoff = 5.55
  ghost atom cutoff = 5.55
  binsize = 2.775, bins = 45 26 41
  1 neighbor lists, perpetual/occasional/extra = 1 0 0
  (1) pair kim, perpetual
      attributes: full, newton off, ghost, cut 5.55
      pair build: full/bin/ghost
      stencil: full/ghost/bin/3d
      bin: standard
clear
OMP_NUM_THREADS environment is not set. Defaulting to 1 thread. (src/comm.cpp:98)
  using 1 OpenMP thread(s) per MPI task
next p
jump SELF loop2
units metal
boundary p p p
atom_style atomic
lattice custom 6.711 a1 0.3671583967 0 0 a2 0.1835791983 0.3179684987 0 a3 0 0 1 basis 0.1 0.1 0.05 basis 0.433 0.433 0.55
Lattice spacing in x,y,z = 3.6960000 2.1338866 6.7110000
region 1 block 0.0 40.0 0.0 40.0 0.0 20.0 units lattice
region 2 block 10.0 20.0 10.0 30.0 8.5 10.0 units lattice
region 3 block 20.0 30.0 10.0 30.0 8.3 9.0 units lattice
region 4 block 10.0 20.0 10.0 30.0 10.0 10.5 units lattice
region 5 block 20.0 30.0 10.0 30.0 9.0 9.5 units lattice
create_box 2 1
Created orthogonal box = (0.0000000 0.0000000 0.0000000) to (147.84000 85.355464 134.22000)
  2 by 1 by 2 MPI processor grid
create_atoms 1 region 4
Created 300 atoms
  using lattice units in orthogonal box = (0.0000000 0.0000000 0.0000000) to (147.84000 85.355464 134.22000)
  create_atoms CPU = 0.001 seconds
lattice custom 6.711 a1 0.3671583967 0 0 a2 0.1835791983 0.3179684987 0 a3 0 0 1 basis 0.2667 0.2667 0.25 basis 0.6 0.6 0.75
Lattice spacing in x,y,z = 3.6960000 2.1338866 6.7110000
create_atoms 1 region 5
Created 300 atoms
  using lattice units in orthogonal box = (0.0000000 0.0000000 0.0000000) to (147.84000 85.355464 134.22000)
  create_atoms CPU = 0.002 seconds
mass 1 12.0107
lattice custom 5.4309 a1 1 0 0 a2 0 1 0 a3 0 0 1 basis 0.15 0.15 0.15 basis 0.65 0.65 0.15 basis 0.65 0.15 0.65 basis 0.15 0.65 0.65
Lattice spacing in x,y,z = 5.4309000 5.4309000 5.4309000
create_atoms 2 region 2
Created 416 atoms
  using lattice units in orthogonal box = (0.0000000 0.0000000 0.0000000) to (147.84000 85.355464 134.22000)
  create_atoms CPU = 0.003 seconds
lattice custom 5.4309 a1 1 0 0 a2 0 1 0 a3 0 0 1 basis 0.65 0.35 0.35 basis 0.65 0.85 0.85 basis 0.15 0.85 0.35 basis 0.15 0.85 0.0.85
Lattice spacing in x,y,z = 5.4309000 5.4309000 5.4309000
create_atoms 2 region 3
Created 203 atoms
  using lattice units in orthogonal box = (0.0000000 0.0000000 0.0000000) to (147.84000 85.355464 134.22000)
  create_atoms CPU = 0.003 seconds
mass 2 28.0855
group 1 type 1
600 atoms in group 1
group 2 type 2
619 atoms in group 2
group 3 type 1
600 atoms in group 3
group 3 type 2
1219 atoms in group 3
pair_style kim Tersoff_LAMMPS_ErhartAlbe_2005SiII_SiC__MO_408791041969_003
pair_coeff * * C Si
neighbor 2.5 bin
neigh_modify every 1 delay 100
dump 1 all atom 100 dump.SiC_$t_$p_dt:${dt}
dump 1 all atom 100 dump.SiC_900_$p_dt:${dt}
dump 1 all atom 100 dump.SiC_900_2_dt:${dt}
dump 1 all atom 100 dump.SiC_900_2_dt:0.0001
compute 1 1 pe/atom
compute 2 1 ke/atom
compute 3 2 pe/atom
compute 4 2 ke/atom
compute 5 3 pe/atom
compute 6 3 ke/atom
compute ape_C 1 reduce ave c_1
compute ake_C 1 reduce ave c_2
compute ape_Si 2 reduce ave c_3
compute ake_Si 2 reduce ave c_4
compute ape_CSi 3 reduce ave c_5
compute ake_CSi 3 reduce ave c_6
velocity 3 zero linear
velocity 3 zero angular
fix 1 3 nvt temp 0.001 10.0 0.001 fixedpoint 20.0 35.0 20.0
thermo_style custom step temp press c_ape_C c_ake_C c_ape_Si c_ake_Si
thermo 100
timestep 0.0001
run 5000
WARNING: More than one compute ke/atom (src/compute_ke_atom.cpp:56)
WARNING: More than one compute ke/atom (src/compute_ke_atom.cpp:56)
WARNING: More than one compute ke/atom (src/compute_ke_atom.cpp:56)
Neighbor list info ...
  update every 1 steps, delay 100 steps, check yes
  max neighbors/atom: 2000, page size: 100000
  master list distance cutoff = 5.55
  ghost atom cutoff = 5.55
  binsize = 2.775, bins = 54 31 49
  1 neighbor lists, perpetual/occasional/extra = 1 0 0
  (1) pair kim, perpetual
      attributes: full, newton off, ghost, cut 5.55
      pair build: full/bin/ghost
      stencil: full/ghost/bin/3d
      bin: standard
Per MPI rank memory allocation (min/avg/max) = 4.356 | 6.051 | 11.12 Mbytes
Step Temp Press c_ape_C c_ake_C c_ape_Si c_ake_Si 
       0            0   -870.81698  -0.49905691            0  -0.70223477            0 
     100  0.020366713   -882.07495  -0.50457207 3.709032e-06  -0.70799051 1.5849642e-06 
     200  0.038214374   -892.29123  -0.50989108 6.9648701e-06  -0.71353881 2.9685062e-06 
     300  0.090789339   -902.63431  -0.51566826 1.6563621e-05  -0.71955918 7.036506e-06 
     400   0.25969865   -914.29776  -0.52286701 4.7445923e-05  -0.72704821 2.0063174e-05 
     500   0.68581758   -928.01107  -0.53321989 0.00012557604  -0.73778555 5.2711976e-05 
     600    1.0334483   -940.12952  -0.54663793 0.00018979523  -0.75163227 7.8881721e-05 
     700    1.2574911   -945.40499  -0.56123152 0.00023156355  -0.76660259 9.5379373e-05 
     800    1.4668565   -941.13694  -0.57637051 0.00027046528  -0.78206374 0.00011092254 
     900    1.6718302   -925.44941  -0.59172971 0.00030778076  -0.79775083 0.00012688622 
    1000    1.8740544   -898.68124  -0.60693077 0.00034269179  -0.81340354 0.00014448127 
    1100    2.0771378   -862.02644  -0.62153954 0.0003743227  -0.82875183 0.00016547429 
    1200    2.2899384   -820.41232  -0.63521319 0.00040260307  -0.84361059 0.00019218649 
    1300    2.5143455   -784.37317  -0.64799231 0.00043049051  -0.85804138 0.00022223163 
    1400    2.7340859   -753.01645  -0.66023738 0.00045811313  -0.87224433 0.00025134648 
    1500    2.9418798   -729.12442  -0.67229663 0.00048881012  -0.88636139 0.00027444284 
    1600    3.1443109   -704.55621  -0.68429178 0.00051943593  -0.90037429 0.00029624419 
    1700    3.3438942    -676.5588  -0.69615092 0.00054690525   -0.9142467 0.00032038083 
    1800    3.5485159   -645.95153   -0.7077608 0.00057462973  -0.92791756 0.00034555162 
    1900    3.7455165   -612.59364  -0.71911935 0.00060116137  -0.94136166 0.00036994023 
    2000    3.9438221     -575.629  -0.73005339 0.00062695593  -0.95443378 0.00039537525 
    2100    4.1530714   -535.77405  -0.74045298 0.00065537422  -0.96699166 0.00042105053 
    2200     4.361589   -499.49026  -0.75047124 0.00068771344  -0.97909286 0.00044273913 
    2300    4.5671262   -463.58322  -0.76029292 0.00072138146  -0.99086054 0.00046238166 
    2400    4.7863734   -430.79785   -0.7700475 0.00076586239    -1.002355 0.00047503026 
    2500     5.372901   -430.35827   -0.7844711 0.0011229012   -1.0125382 0.00027813033 
    2600    5.1455302   -415.33922    -0.812769 0.0011413598   -1.0188372 0.00020240794 
    2700    5.3170779   -385.62554  -0.83561855 0.0011017307   -1.0260681 0.00028445273 
    2800    5.4221806   -363.23274  -0.85821626 0.0011383499   -1.0334406 0.00027568983 
    2900    5.8702398   -346.53236  -0.87603209 0.0011810817   -1.0417914 0.00034823071 
    3000    6.0184358   -348.86405  -0.89938311 0.0013098334   -1.0485566 0.00026112379 
    3100    6.1526094   -338.06232  -0.92773214 0.0013810837   -1.0538687 0.00022618666 
    3200    6.0491167   -309.32054   -0.9561739 0.0013162633   -1.0590887 0.00026269474 
    3300    6.1633834   -276.28194   -0.9803276 0.0012528775   -1.0653964 0.0003531979 
    3400    7.0171946   -269.07478   -0.9988561 0.0014536745   -1.0735776 0.00037572599 
    3500    6.7938725   -256.74097   -1.0267315 0.0015069025   -1.0794734 0.00026733123 
    3600    7.1699535     -220.813   -1.0484341 0.0013909176   -1.0863482 0.0004754099 
    3700    7.3682719    -207.7768   -1.0676533  0.001432635   -1.0940681 0.00048541402 
    3800    7.9462635   -228.18889   -1.0933136 0.0017551589   -1.1008614 0.00031979853 
    3900    7.7016122   -215.01636   -1.1314688 0.0017552885   -1.1055263 0.00025744733 
    4000    7.9528604   -182.20035   -1.1589643 0.0015884837   -1.1119491 0.00048303559 
    4100    7.9821637      -191.71   -1.1906782 0.0018058448   -1.1171451 0.00027979939 
    4200    8.6067102   -157.66825    -1.219999 0.0017329736   -1.1231668 0.00050928343 
    4300     8.915318   -152.48331   -1.2480985 0.0018793522   -1.1297244 0.0004458904 
    4400    8.7643382   -129.30239    -1.274107 0.0017040724   -1.1366163 0.00057738925 
    4500    8.6951867   -138.87557   -1.3038675 0.0019227151   -1.1428365 0.00034786944 
    4600     8.885161   -125.73678    -1.340216 0.0019975463   -1.1469391 0.00032365395 
    4700    9.4116494   -99.199512   -1.3709153 0.0019496874   -1.1519657 0.00050395296 
    4800    8.8688567   -91.445567   -1.3995384  0.001848218   -1.1585003 0.00046425177 
    4900      9.76904   -79.858274   -1.4238121 0.0019301174   -1.1656175 0.00061382235 
    5000    10.105115   -81.581274   -1.4423916 0.0018678957   -1.1744637 0.00075961293 
Loop time of 2.91486 on 4 procs for 5000 steps with 1219 atoms

Performance: 14.821 ns/day, 1.619 hours/ns, 1715.351 timesteps/s
98.8% CPU use with 4 MPI tasks x 1 OpenMP threads

MPI task timing breakdown:
Section |  min time  |  avg time  |  max time  |%varavg| %total
---------------------------------------------------------------
Pair    | 0.30282    | 1.6286     | 2.5187     |  65.0 | 55.87
Neigh   | 0          | 0          | 0          |   0.0 |  0.00
Comm    | 0.21366    | 1.0874     | 2.3729     |  77.4 | 37.30
Output  | 0.062711   | 0.06289    | 0.063214   |   0.1 |  2.16
Modify  | 0.070155   | 0.084643   | 0.10424    |   5.1 |  2.90
Other   |            | 0.05134    |            |       |  1.76

Nlocal:        304.750 ave         503 max           0 min
Histogram: 1 0 0 0 0 1 0 0 1 1
Nghost:        273.250 ave         372 max         104 min
Histogram: 1 0 0 0 0 1 0 0 0 2
Neighs:         0.00000 ave           0 max           0 min
Histogram: 4 0 0 0 0 0 0 0 0 0
FullNghs:      6178.50 ave        9470 max           0 min
Histogram: 1 0 0 0 0 0 0 1 1 1

Total # of neighbors = 24714
Ave neighs/atom = 20.273995
Neighbor list builds = 0
Dangerous builds = 0
reset_timestep 0
unfix 1
velocity 3 zero linear
velocity 3 zero angular
velocity 3 create $t 12025
velocity 3 create 900 12025
velocity 3 scale $t
velocity 3 scale 900
fix 1 3 npt temp $t $t 0.001 iso $p $p 0.01 fixedpoint 20.0 35.0 20.0
fix 1 3 npt temp 900 $t 0.001 iso $p $p 0.01 fixedpoint 20.0 35.0 20.0
fix 1 3 npt temp 900 900 0.001 iso $p $p 0.01 fixedpoint 20.0 35.0 20.0
fix 1 3 npt temp 900 900 0.001 iso 2 $p 0.01 fixedpoint 20.0 35.0 20.0
fix 1 3 npt temp 900 900 0.001 iso 2 2 0.01 fixedpoint 20.0 35.0 20.0
thermo_style custom step temp press c_ape_C c_ake_C c_ape_Si c_ake_Si c_ape_CSi c_ake_CSi
thermo 100
timestep ${dt}
timestep 0.0001
run 30000
WARNING: More than one compute ke/atom (src/compute_ke_atom.cpp:56)
WARNING: More than one compute ke/atom (src/compute_ke_atom.cpp:56)
WARNING: More than one compute ke/atom (src/compute_ke_atom.cpp:56)
Neighbor list info ...
  update every 1 steps, delay 100 steps, check yes
  max neighbors/atom: 2000, page size: 100000
  master list distance cutoff = 5.55
  ghost atom cutoff = 5.55
  binsize = 2.775, bins = 54 31 49
  1 neighbor lists, perpetual/occasional/extra = 1 0 0
  (1) pair kim, perpetual
      attributes: full, newton off, ghost, cut 5.55
      pair build: full/bin/ghost
      stencil: full/ghost/bin/3d
      bin: standard
Per MPI rank memory allocation (min/avg/max) = 4.857 | 6.927 | 13.12 Mbytes
Step Temp Press c_ape_C c_ake_C c_ape_Si c_ake_Si c_ape_CSi c_ake_CSi 
       0          900    6.7733369   -1.4423916   0.11932493   -1.1744637   0.11324719   -1.3063396    0.1162387 
     100    975.85029   -3.5861694   -1.5427508   0.15962319   -1.1696312   0.09347793   -1.3532832   0.12603507 
     200    1024.1597    83.408811    -1.867944   0.22147068   -1.1875967  0.045816038   -1.5224682   0.13227443 
     300    931.47457    75.481702   -2.2568579   0.21770982   -1.2127874  0.025887563    -1.726686   0.12030377 
     400    890.37395    39.606894   -2.5984175   0.21383707   -1.2296923  0.019187745    -1.903388   0.11499545 
     500    899.61457    28.315516   -2.7524043    0.2099776   -1.2418211  0.025279046   -1.9853403   0.11618892 
     600    915.06926   -3.8989933   -2.8214107    0.2070839   -1.2521677  0.032014735   -2.0245596   0.11818495 
     700    932.89935    28.490176   -2.9971251   0.21789648   -1.2676894  0.026069014   -2.1189293   0.12048778 
     800    912.82221    33.635648   -3.0512074    0.2065398   -1.2750103  0.031970606   -2.1492664   0.11789474 
     900    942.97511    6.4977041   -3.1871538   0.21696386   -1.2961811  0.029535716   -2.2269306   0.12178911 
    1000     924.5386    -24.52857   -3.3355534   0.21635631   -1.3074204  0.025435407   -2.3056811   0.11940796 
    1100    942.65902    24.379332   -3.3949098   0.21755702   -1.3298473  0.028880361    -2.346285   0.12174828 
    1200    912.79469   0.11409754   -3.5015977   0.20475964   -1.3505303  0.033689125   -2.4093001   0.11789118 
    1300     918.4672    3.5423747   -3.6172881   0.20358924   -1.3666448  0.036266363   -2.4744266   0.11862381 
    1400    927.06743     13.55968   -3.6844451   0.21067881   -1.3784864  0.031581822   -2.5134948   0.11973457 
    1500    918.42251   -28.668081   -3.7941861   0.20623774   -1.3928929  0.033687801   -2.5748255   0.11861804 
    1600    928.39315   0.79642762   -3.8782493   0.19821113   -1.4274004  0.044004001   -2.6337247   0.11990579 
    1700    935.43242   -6.3969979   -3.9626091   0.20502118   -1.4480426  0.039193376   -2.6857292   0.12081494 
    1800    892.85524    4.7640799   -4.0204899   0.19971522    -1.450082  0.033507234   -2.7152541   0.11531592 
    1900    922.53815   -16.280162   -4.0413409   0.18950522   -1.4763271  0.050953502   -2.7388442   0.11914959 
    2000    932.96948    71.846627   -4.0886241   0.19863663   -1.4846611  0.044755529   -2.7663492   0.12049684 
    2100    925.13242   -26.316986   -4.1742592   0.19950463   -1.4985187  0.041920856   -2.8155362   0.11948465 
    2200    912.22423   -19.972071   -4.2123484   0.18227505     -1.52516  0.055338466   -2.8478122   0.11781751 
    2300    918.96772     55.25553   -4.2481196   0.18285973   -1.5496001  0.056486901   -2.8778295   0.11868846 
    2400    902.83983   -53.842398    -4.290252   0.17123256   -1.5803418  0.063655144   -2.9141778   0.11660547 
    2500    887.28873   -8.7335873     -4.32666    0.1679218   -1.5997253  0.062908956   -2.9419409   0.11459698 
    2600    914.34404    32.461169   -4.3607813   0.17069443   -1.6113108  0.067102781   -2.9646187   0.11809129 
    2700    903.57172   -2.6955769   -4.4080333    0.1576359   -1.6525821  0.077020611   -3.0088337       0.1167 
    2800    893.50484   -17.719159   -4.4396004   0.15613033   -1.6661203  0.075919516   -3.0312458   0.11539982 
    2900    909.48247    75.464989   -4.5180958   0.17367411   -1.6887966  0.062978048   -3.0813967    0.1174634 
    3000    920.76115    57.800661   -4.5530459   0.16836052   -1.7239201  0.070997206   -3.1164348   0.11892008 
    3100     907.9709   -30.153539   -4.5777755   0.16197049   -1.7432959  0.073937978   -3.1384458   0.11726817 
    3200    875.81287     9.500366   -4.5888146   0.15106616   -1.7597462  0.076328407   -3.1522327   0.11311483 
    3300    892.33856   -20.330373   -4.6098747   0.14372438    -1.796892  0.087648038    -3.181461   0.11524919 
    3400    862.61147   -57.205288   -4.6389247   0.12606115   -1.8339333  0.097208195    -3.214569   0.11140981 
    3500    923.59128    59.965569   -4.6512547   0.13108594   -1.8607948   0.10784748    -3.234278   0.11928561 
    3600    910.34294    42.677607   -4.6590697    0.1208557   -1.8973254   0.11439407   -3.2566745   0.11757453 
    3700    902.98868   -17.576531   -4.7039752   0.11857996   -1.9518524   0.11472945   -3.3064658    0.1166247 
    3800    908.27323   -14.891734   -4.7501033   0.12435731   -2.0002364   0.11047353   -3.3537394   0.11730722 
    3900    862.24736    12.424689   -4.7419402   0.11112999   -2.0095156   0.11158844   -3.3544334   0.11136279 
    4000    912.21031    50.013121   -4.7573947   0.11652404   -2.0340898   0.11906773   -3.3745188   0.11781571 
    4100    917.78734    28.205921    -4.767915   0.10627592   -2.0783985   0.13041977   -3.4021966     0.118536 
    4200     902.0429   -40.750335   -4.7873512   0.10070747   -2.1189234   0.13181279   -3.4323415   0.11650255 
    4300    903.64178   -50.505748    -4.807065  0.095536751   -2.1761565   0.13723147   -3.4711073   0.11670905 
    4400    887.07683    6.1743741   -4.8256235   0.09497199   -2.2139558    0.1335657   -3.4994362   0.11456962 
    4500    900.57474    19.178328    -4.837459  0.094606725   -2.2463852   0.13735286   -3.5217292   0.11631293 
    4600    882.07708     38.91428   -4.8420198   0.08241051   -2.2927872   0.14446995   -3.5475366   0.11392388 
    4700    925.11272   -6.0738821   -4.8539812  0.089547299   -2.3274018   0.14849808   -3.5710012   0.11948211 
    4800    901.74214   -19.380985   -4.8642051  0.080737369   -2.3705113   0.15109343   -3.5979242    0.1164637 
    4900     904.9087   -5.1488001   -4.8969621   0.08967887   -2.4042248   0.14323178   -3.6311669   0.11687268 
    5000    859.82016   -3.0654439   -4.9002344  0.080352537   -2.4267015   0.14080385    -3.644191   0.11104931 
    5100    884.79342   -23.194602   -4.9023428  0.076918942   -2.4673827   0.15048384   -3.6658864    0.1142747 
    5200    895.60184    -94.94526   -4.9127028  0.081009882   -2.4871004   0.14926753   -3.6809982   0.11567066 
    5300    923.41861   -42.959538   -4.9185284  0.069173785    -2.557601   0.16781535   -3.7196653   0.11926331 
    5400    915.66739   -23.068664   -4.9362483  0.067675326   -2.6159013   0.16729633   -3.7579917    0.1182622 
    5500    914.70172   -11.425635   -4.9387477  0.062048917    -2.641689   0.17250443   -3.7723167   0.11813748 
    5600    900.41141   -27.171216    -4.945768  0.059910836   -2.6820384   0.17094223   -3.7962614   0.11629183 
    5700    900.54606   -57.256594   -4.9561467  0.058387352   -2.7331382    0.1724532   -3.8273179   0.11630922 
    5800    872.42243   -54.333423   -4.9600731  0.054015608   -2.7789679   0.16953768   -3.8525226   0.11267694 
    5900    905.13105   -39.989199   -4.9725509  0.065110864   -2.8054269   0.16710223   -3.8720999   0.11690139 
    6000    899.59349   -29.922941   -4.9776597  0.055037957     -2.86308   0.17545751   -3.9038904   0.11618619 
    6100    897.86275    5.9904337   -4.9941008  0.057538439    -2.919125   0.17259357    -3.940442   0.11596266 
    6200    866.14247    68.868996   -4.9996272  0.059069397   -2.9339348   0.16304175   -3.9506825   0.11186586 
    6300    915.17196    79.288515   -4.9948954  0.054263469   -2.9738262   0.18017051     -3.96861   0.11819822 
    6400    856.63991   -19.271166   -5.0043767   0.04638513   -3.0276728   0.17291976   -4.0006197   0.11063856 
    6500    873.92436   -42.144741    -5.008087   0.05078451   -3.0430316   0.17305161   -4.0102451   0.11287092 
    6600    911.10429    12.511885   -5.0080331  0.053901176   -3.0568281    0.1794871   -4.0172243   0.11767286 
    6700    913.72135    52.862542    -5.019385  0.053285534   -3.1136702   0.18074947   -4.0516759   0.11801087 
    6800    889.48162    1.8530037   -5.0266796  0.048364137   -3.1631633   0.17935458   -4.0803986    0.1148802 
    6900    929.30705   -82.541637   -5.0354816  0.050782448    -3.181511   0.18713986   -4.0940478   0.12002382 
    7000    869.62608   -20.417748   -5.0403368   0.05237017   -3.1964036   0.17042138   -4.1039999   0.11231578 
    7100    902.60796    21.051299   -5.0385472  0.052037323   -3.2209507   0.17913275   -4.1155839   0.11657553 
    7200    860.53358    29.104218   -5.0426025  0.045838892   -3.2634319   0.17443956   -4.1391516   0.11114145 
    7300    925.91623   -77.403205   -5.0510808  0.056278153   -3.2810078   0.18095041   -4.1522496   0.11958588 
    7400    873.18368   -59.717159   -5.0527715  0.056244966    -3.285926   0.16757037   -4.1555792   0.11277526 
    7500    888.66589    49.248103   -5.0463067  0.052675719   -3.3062537   0.17496787   -4.1627195   0.11477485 
    7600    918.22273    45.172959   -5.0476419   0.05280067   -3.3300522   0.18236435   -4.1754614   0.11859224 
    7700    923.71759   -4.3232361   -5.0608986  0.060649042   -3.3548298   0.17615447   -4.1945684   0.11930192 
    7800    906.91856   -58.462111   -5.0610827  0.061909349   -3.3525104   0.17066012   -4.1934812   0.11713226 
    7900    908.91054   -45.689098   -5.0665142  0.063003689   -3.3793006   0.17010602   -4.2097585   0.11738953 
    8000     918.3841    95.783126   -5.0740879  0.062838524   -3.4186467   0.17267565    -4.233466   0.11861308 
    8100    904.99273   -29.863243   -5.0729163  0.061229299   -3.4312411   0.17082947   -4.2392846   0.11688353 
    8200    896.93387   -2.6186112   -5.0755808  0.059777904   -3.4453998   0.17018659   -4.2477858   0.11584269 
    8300    898.00271    38.498639   -5.0874712  0.066743132    -3.469936   0.16370701   -4.2660977   0.11598074 
    8400    904.01537   -16.641308    -5.082855  0.056336861   -3.4943514   0.17532315   -4.2762235    0.1167573 
    8500    909.82015   -55.333818   -5.0899806  0.063266755   -3.4969879   0.17008238   -4.2810696   0.11750701 
    8600    860.33435     45.07446   -5.0895741  0.062811651   -3.4941119    0.1579371   -4.2794091   0.11111572 
    8700    897.83987    40.672637   -5.0940813  0.064841133   -3.5182361   0.16550921   -4.2938777   0.11595971 
    8800    876.23547   -34.881299   -5.0942286  0.056762971   -3.5478596   0.16784447   -4.3089929   0.11316941 
    8900    936.62552   -10.535442   -5.1002224  0.064504472   -3.5549639   0.17570043   -4.3155506   0.12096903 
    9000    901.04259    20.170001   -5.1054934  0.062968867   -3.5760026    0.1681386   -4.3288283   0.11637335 
    9100    905.16792   -35.429313   -5.1117713   0.06202058    -3.603189   0.17010704   -4.3457234   0.11690615 
    9200    876.31479    24.442824    -5.121022  0.062374286   -3.6216639   0.16242557    -4.359658   0.11317965 
    9300    902.21695    82.195486   -5.1313428  0.069586051   -3.6351803   0.16202322   -4.3716015   0.11652502 
    9400    902.77271     -38.2749   -5.1399946  0.072730321   -3.6474386   0.15911682   -4.3820847    0.1165968 
    9500    916.30631   -20.707701    -5.138503  0.072723013    -3.655675   0.16256609   -4.3855329   0.11834472 
    9600     904.0936    61.811542   -5.1355134  0.070649686   -3.6611444   0.16146955   -4.3868388    0.1167674 
    9700    909.11688   -47.114541    -5.143168   0.07091863   -3.6778413    0.1624865    -4.399085   0.11741618 
    9800    890.99817   -49.551519   -5.1504817   0.07216792   -3.6979242   0.15666717   -4.4128828   0.11507607 
    9900    901.59033    95.004021   -5.1483667  0.072015138   -3.6962776   0.15950932   -4.4110057   0.11644409 
   10000    920.47801    1.9724519    -5.147998  0.073222292   -3.6956632   0.16314318   -4.4105121   0.11888352 
   10100    909.91733   -38.731784   -5.1431546   0.07115068   -3.7079525   0.16246516   -4.4143686   0.11751956 
   10200    881.93199    65.293871   -5.1506907  0.072347415   -3.7235673   0.15418726    -4.426007   0.11390514 
   10300    890.05015   -9.6447673   -5.1544819   0.07186371   -3.7396837   0.15672092   -4.4360569   0.11495363 
   10400    903.22888   -88.236853   -5.1544613  0.070379522   -3.7535467   0.16151148   -4.4430862   0.11665572 
   10500     915.1449    43.017808   -5.1593792  0.075064024   -3.7567822   0.16000154   -4.4471499   0.11819472 
   10600    920.99837   -28.872291   -5.1616254  0.081503537   -3.7492015   0.15524848    -4.444406   0.11895072 
   10700    902.85631   -20.302249    -5.165773  0.075450723   -3.7747835   0.15650118   -4.4594379    0.1166076 
   10800    921.75642    70.034616   -5.1709807   0.07711432   -3.7924699   0.15969578   -4.4709822   0.11904863 
   10900    907.19463   -80.693359   -5.1711622  0.074740274   -3.7954935   0.15829325   -4.4726069   0.11716791 
   11000    896.54466    3.5465064   -5.1721327  0.075700247   -3.7923352   0.15465399   -4.4714808   0.11579243 
   11100    881.64647    27.474406   -5.1799173  0.077471847   -3.8013341    0.1491475   -4.4798821   0.11386826 
   11200    845.29828   -39.586449    -5.176361  0.071879663   -3.8115013    0.1453231   -4.4832944   0.10917375 
   11300    895.39233    67.387564   -5.1850245  0.080728111   -3.8150802   0.14948736    -4.489376    0.1156436 
   11400     892.2194   -38.590185   -5.1814381  0.074139994   -3.8219284   0.15506625   -4.4910882    0.1152338 
   11500    892.09417   -41.083002   -5.1908574  0.075204308    -3.838075   0.15400275   -4.5039236   0.11521763 
   11600    893.91504    29.780644    -5.192418  0.075009035   -3.8361839   0.15465516   -4.5037315    0.1154528 
   11700    890.58954   -32.202698   -5.1915711  0.076292413   -3.8333438   0.15256535   -4.5018724    0.1150233 
   11800    901.14723    23.931797    -5.190021  0.077538097   -3.8391446   0.15404319   -4.5040551   0.11638687 
   11900     914.7562    97.785155   -5.1956734  0.081545098   -3.8468473   0.15362054   -4.5107486   0.11814452 
   12000    864.19898   -98.363617   -5.1992161  0.080404422   -3.8476205   0.14186728   -4.5128849   0.11161485 
   12100    897.79354     27.35811   -5.2056974  0.087647609   -3.8526641   0.14339099   -4.5186362   0.11595372 
   12200    900.44004     9.177515   -5.2053729  0.083321773   -3.8581009   0.14825717   -4.5212372   0.11629553 
   12300    892.73915   -39.487755   -5.2141892  0.092688511   -3.8564616   0.13721926   -4.5247443   0.11530093 
   12400    922.01808    101.98503   -5.2127893  0.093322886   -3.8577854   0.14405128   -4.5247275   0.11908242 
   12500    909.17036   -101.52076   -5.2155118  0.089213345   -3.8691451   0.14476694   -4.5318358   0.11742309 
   12600    891.67468    24.422641   -5.2191062  0.091695104   -3.8735174   0.13791144   -4.5358253   0.11516345 
   12700    905.07664    14.961317   -5.2158548  0.094408889   -3.8591638   0.13868966   -4.5269362   0.11689437 
   12800    889.29777    -50.43084   -5.2153403  0.091849451   -3.8611103   0.13715728   -4.5276714   0.11485646 
   12900    895.65878    51.780862   -5.2206444  0.093882088    -3.868724   0.13680491   -4.5341483   0.11567801 
   13000    894.36002    26.256895   -5.2233212  0.096258303   -3.8726035    0.1341713   -4.5374358   0.11551027 
   13100    886.35425   -88.014073   -5.2271005  0.093539177   -3.8780583   0.13477075   -4.5420659   0.11447629 
   13200    911.20889    34.882278    -5.231951  0.097332105   -3.8838647   0.13741587   -4.5474018   0.11768637 
   13300     896.9883    15.772586    -5.236423  0.096009795    -3.886127   0.13508067   -4.5507518   0.11584972 
   13400    871.61221    -30.52876   -5.2367952  0.089149589   -3.8924907   0.13527605   -4.5541664    0.1125723 
   13500    929.49703    31.420728   -5.2475495   0.10320419   -3.8969383    0.1363755   -4.5617182   0.12004836 
   13600    889.21044   -37.511591   -5.2531202   0.10198157   -3.8961353   0.12731395   -4.5640524   0.11484518 
   13700    911.44806    35.305412   -5.2535851  0.097833692   -3.9124284   0.13699051   -4.5725547   0.11771726 
   13800    881.13186    27.399155   -5.2566368  0.094161711   -3.9087825   0.13283904   -4.5722054    0.1138018 
   13900    864.56294   -31.534586   -5.2653791  0.098788221   -3.9045744   0.12414034   -4.5743716   0.11166185 
   14000    910.30041    44.955211   -5.2635201   0.10167272   -3.9114902   0.13297742   -4.5769684   0.11756904 
   14100    903.82095   -62.139912   -5.2604787  0.099743283   -3.9131218   0.13319962      -4.5763   0.11673219 
   14200    880.23133    67.827174   -5.2566413  0.099308578   -3.9102251   0.12762111   -4.5729402   0.11368549 
   14300    879.97902   -13.700524   -5.2623864  0.098412155   -3.9160973   0.12842584   -4.5787498    0.1136529 
   14400    935.15204   -51.782333   -5.2657217   0.10375508   -3.9216887   0.13727984   -4.5832308   0.12077873 
   14500    893.37621    81.594455   -5.2629455  0.097156716   -3.9271689   0.13305024   -4.5846471   0.11538321 
   14600    891.63964   -52.624915   -5.2644833  0.097710939   -3.9251965   0.13207134   -4.5844024   0.11515892 
   14700    877.20799    39.119559   -5.2655679  0.099792484   -3.9261617   0.12638309   -4.5854265   0.11329502 
   14800    887.20158   -17.905108   -5.2692183  0.098771073   -3.9372226   0.12991496   -4.5928399   0.11458573 
   14900    863.30929    -9.686685   -5.2696626  0.090555347   -3.9493916   0.13180165   -4.5992379   0.11149994 
   15000    924.58171    112.20148   -5.2662741   0.10513675    -3.937853   0.13325208   -4.5917108   0.11941352 
   15100    910.48776   -94.817134   -5.2697424   0.10604643   -3.9332791   0.12878561   -4.5910954   0.11759323 
   15200     907.2834    46.195119   -5.2791669   0.10700955   -3.9429919   0.12703705   -4.6006662   0.11717938 
   15300    879.27735   -17.066261   -5.2761228   0.10028687   -3.9542723    0.1264302    -4.604896   0.11356228 
   15400    885.35665   -17.013873   -5.2895536     0.108928   -3.9576503   0.11960054   -4.6132221   0.11434745 
   15500    953.90975    50.635416   -5.2862671   0.11046518   -3.9570236   0.13554661   -4.6112862   0.12320136 
   15600     911.7824   -129.28942   -5.2884519   0.10971138   -3.9588763   0.12556244   -4.6133024   0.11776044 
   15700    872.19007    90.712951   -5.2978238   0.10502045   -3.9662889   0.12003932   -4.6216794   0.11264693 
   15800    918.66001   -6.6345114   -5.2950138   0.11026836   -3.9665468   0.12677184   -4.6204272   0.11864871 
[...]
   14600     1049.115   -56.173798   -5.3984783   0.12617958   -3.9592328   0.14452944   -4.6676391   0.13549751 
   14700    997.08497   -34.124776   -5.3913561   0.11997593   -3.9566358   0.13730914   -4.6628148   0.12877762 
   14800    988.87663    4.9809926   -5.4006848   0.12719001   -3.9530302   0.12822875   -4.6655755   0.12771748 
   14900    999.34938    28.575616   -5.3941303   0.12143973   -3.9566434   0.13646622   -4.6641841   0.12907008 
   15000    1011.2223   -6.6246735   -5.4007362   0.12295015   -3.9660368   0.13802197   -4.6722055   0.13060352 
   15100    973.76039   -50.113024   -5.3993432   0.11629804   -3.9678994   0.13494168   -4.6724657   0.12576515 
   15200    997.85589   -26.298814   -5.3964387   0.11951713   -3.9707759   0.13794994   -4.6724967   0.12887719 
   15300    1010.8742    140.72401   -5.4028331   0.13047679   -3.9688834    0.1306378   -4.6746831   0.13055855 
   15400    975.36109    16.012065   -5.4032919   0.12246302   -3.9781977   0.12937306   -4.6796387   0.12597189 
   15500    1021.0373   -65.531113   -5.4051985   0.12204723   -3.9870937   0.14139356   -4.6850944   0.13187117 
   15600    976.68755    -18.75055   -5.4098485   0.11970055   -3.9834224   0.13238811   -4.6855189   0.12614321 
   15700     1017.783    52.610701    -5.412059   0.12457222   -3.9873904   0.13811834   -4.6886219   0.13145085 
   15800    1002.5471    7.9654176   -5.4100445   0.11973828   -3.9984214   0.13892877   -4.6932318   0.12948308 
   15900    967.60618   -94.551361   -5.4145855    0.1157013   -4.0012507   0.13395481   -4.6969036   0.12497031 
   16000    995.04721    15.656732   -5.4099162   0.11570021   -3.9972712   0.14093533   -4.6925846   0.12851443 
   16100    1004.7879     77.87849   -5.4124941   0.11357119   -3.9935459   0.14547648   -4.6919618   0.12977249 
   16200    1039.1973   -1.4038161   -5.4208978   0.12198524   -4.0003264   0.14607251   -4.6995412    0.1342166 
   16300    1000.0119   -36.122206   -5.4148675   0.11132182   -4.0054518   0.14644207   -4.6991757   0.12915564 
   16400    980.77753   -19.107037   -5.4262725   0.11117828   -4.0207818   0.14168905   -4.7125738   0.12667145 
   16500    979.86918    102.67996   -5.4237531   0.11607855   -4.0106915   0.13670816   -4.7062099   0.12655413 
   16600    1008.9289    56.126285   -5.4179403   0.11165708   -4.0187418   0.14838507   -4.7074367   0.13030731 
   16700     1003.978   -84.968561   -5.4232877   0.11556863   -4.0210378   0.14333437   -4.7112346   0.12966788 
   16800    1009.4287    17.504184   -5.4257527   0.11736686   -4.0248608   0.14297767   -4.7143893   0.13037186 
   16900    996.11028    54.646259   -5.4233885   0.11158238   -4.0319082   0.14519714   -4.7168042   0.12865173 
   17000    1006.8734   -46.391555   -5.4245181   0.11830534   -4.0375477   0.14141808   -4.7202239   0.13004184 
   17100    971.12412   -71.301298   -5.4316095    0.1179482   -4.0299259   0.13267165    -4.719844   0.12542467 
   17200    994.16417    54.222369   -5.4271513   0.11523218    -4.033424    0.1411644    -4.719426   0.12840039 
   17300    1012.7022     34.20742   -5.4300746   0.11962223     -4.03758   0.14162413   -4.7229752   0.13079465 
   17400    1006.5304   -33.664815   -5.4315803   0.12284512   -4.0305864    0.1369304    -4.720165   0.12999753 
   17500    981.40997   -27.565281   -5.4426768   0.12324657   -4.0329918   0.13015205   -4.7268482   0.12675313 
   17600    971.19291    51.301531   -5.4343588   0.11321143   -4.0424938   0.13728052   -4.7275791   0.12543355 
   17700    1026.5323    87.682552   -5.4408107   0.12379825   -4.0424104    0.1410939   -4.7307124   0.13258086 
   17800    1035.9487   -107.30286   -5.4527041   0.13169639   -4.0472226    0.1358332   -4.7390101   0.13379703 
   17900    986.79537    17.967901   -5.4428972   0.11508659   -4.0581713   0.13943131   -4.7397427   0.12744868 
   18000    1013.7911    68.968787   -5.4585418   0.12792322   -4.0646201    0.1338549   -4.7507177   0.13093528 
   18100    1045.3922    23.362441   -5.4585545   0.13091162   -4.0704048   0.13899577   -4.7536614    0.1350167 
   18200    1009.3257   -76.068317   -5.4517261   0.12386644   -4.0687302    0.1366514   -4.7494501   0.13035856 
   18300    1039.4002    26.527384   -5.4529348   0.12912272   -4.0698698   0.13920572   -4.7506237    0.1342428 
   18400    958.09644    11.589302   -5.4599251   0.12110702   -4.0715526   0.12629628   -4.7549189   0.12374209 
   18500    983.75442   -8.4557556   -5.4588166   0.12177844   -4.0767588   0.13217142   -4.7570169   0.12705592 
   18600    1026.0147    31.812766   -5.4542943   0.12609375    -4.072538   0.13873721   -4.7526478   0.13251401 
   18700    996.92314    84.000703   -5.4683176   0.12421511   -4.0811381   0.13315893   -4.7639172   0.12875672 
   18800    997.52233   -121.83358   -5.4680498   0.12705212   -4.0827427   0.13056139   -4.7646002   0.12883411 
   18900    992.77562   -13.686112   -5.4644959   0.12259644    -4.079281   0.13367301   -4.7610931   0.12822105 
   19000    999.29647    72.753076   -5.4648924   0.12560868   -4.0796189   0.13241177   -4.7614598   0.12906324 
   19100    1005.0995   -14.997678   -5.4660146   0.12375034   -4.0904504   0.13568903   -4.7675124   0.12981272 
   19200    1010.9418    -63.98327   -5.4694617   0.12778815    -4.090186   0.13326112   -4.7690748   0.13056729 
   19300     999.2326    141.45391   -5.4700087   0.12799136   -4.0885267   0.13008598   -4.7685014   0.12905499 
   19400     1079.015   -72.315256   -5.4683882   0.13771348   -4.0879956   0.14095446   -4.7674341   0.13935922 
   19500    1000.9716   -35.924706    -5.471977     0.128507   -4.0874555   0.13002848   -4.7689263    0.1292796 
   19600    981.05681    40.523431   -5.4752497   0.12738016   -4.0879649   0.12605552   -4.7707958   0.12670752 
   19700    996.94058    18.035474    -5.477771   0.12675744   -4.0931741   0.13069907    -4.774682   0.12875897 
   19800    1016.3566   -68.471319   -5.4862889   0.13599439   -4.0920678   0.12668398   -4.7783128   0.13126663 
   19900    999.17974    38.226944   -5.4813503   0.13222722   -4.0881389   0.12596669   -4.7738869   0.12904817 
   20000    1007.8049    74.497256   -5.4901646   0.13309125   -4.0940354   0.12732296   -4.7812196   0.13016215 
   20100    1017.7252   -57.336298   -5.4950511   0.13588467   -4.0974721   0.12713844   -4.7853699   0.13144339 
   20200    1005.3204   -24.593571   -5.4904673   0.12894423   -4.0990733   0.13071076   -4.7839268   0.12984126 
   20300     976.3358    14.627528   -5.4997621   0.12877403   -4.1052519   0.12350367   -4.7916392   0.12609778 
   20400    1048.3774    7.8317752   -5.5041326   0.13958752   -4.1071234   0.13134543   -4.7947407   0.13540224 
   20500    988.98635    9.2649269   -5.5042799   0.13426016   -4.1082055   0.12140353   -4.7953627   0.12773165 
   20600    965.58162  -0.72525397   -5.5037616   0.12274736   -4.1139811   0.12661009   -4.7980404   0.12470883 
   20700    1031.7262    42.974247   -5.5137362   0.13539639   -4.1175958    0.1311728   -4.8047855   0.13325168 
   20800    1023.0945   -26.615451   -5.5116212   0.13369307   -4.1133336    0.1306284   -4.8015802   0.13213685 
   20900    1007.3905   -101.23894   -5.5089328   0.12809957    -4.117229     0.132056    -4.802235   0.13010862 
   21000    1002.6058    69.140425   -5.5072688   0.12700236   -4.1203187   0.13190258   -4.8029849   0.12949066 
   21100    1013.9897    23.607913   -5.5189332   0.13341741   -4.1193004   0.12857987   -4.8082091   0.13096094 
   21200    1049.1047   -23.660104   -5.5212993   0.13785956   -4.1208015   0.13320536    -4.810136   0.13549619 
   21300    1025.6327   -37.360497   -5.5167274   0.13042207    -4.127287   0.13444459   -4.8111789   0.13246468 
   21400    984.65419    121.64499   -5.5231415   0.12742516   -4.1262486   0.12692687   -4.8138087   0.12717213 
   21500    1011.1063   -31.256918   -5.5155844   0.13091135   -4.1230508   0.13027562   -4.8084652   0.13058853 
   21600    981.49957   -41.592364   -5.5227441   0.12711113   -4.1241018    0.1264289   -4.8125229    0.1267647 
   21700    978.35614    37.487316   -5.5170211   0.12716074   -4.1271471    0.1255813   -4.8112524   0.12635871 
   21800    1030.9673   -7.2619364    -5.522242   0.13699815   -4.1258351   0.12942718   -4.8131559   0.13315367 
   21900    989.19205   -55.324585   -5.5220202   0.12630786   -4.1341204   0.12916405    -4.817254   0.12775822 
   22000    996.82628    116.10134   -5.5197078   0.12768024   -4.1356907   0.12977552   -4.8169132   0.12874421 
   22100    1010.5425    37.763705   -5.5259464   0.13647036   -4.1256723   0.12474383   -4.8148967   0.13051571 
   22200    1034.2647   -52.784212   -5.5263902   0.13635004   -4.1308558   0.13089408   -4.8177472   0.13357954 
   22300    986.72127    22.990696   -5.5277533   0.12863996   -4.1328304   0.12627511   -4.8194208    0.1274391 
   22400    1041.5448    39.465642   -5.5291052   0.14084379   -4.1258108   0.12838991   -4.8165217   0.13451979 
   22500    980.84904   -80.345649   -5.5274477    0.1282809   -4.1310347   0.12512958   -4.8183586   0.12668068 
   22600    1023.6369    20.722319   -5.5335269   0.13546599   -4.1353317   0.12904786   -4.8235328   0.13220691 
   22700    1014.4366     100.3007   -5.5320417   0.13691768   -4.1361442    0.1253007   -4.8232143   0.13101865 
   22800    1029.2584   -95.071785   -5.5224632    0.1368191   -4.1309831   0.12916609    -4.815879   0.13293295 
   22900    984.44975   -8.2711726   -5.5250148   0.12760158   -4.1376851   0.12670386   -4.8205381   0.12714573 
   23000    1006.8345    52.146006    -5.532054   0.13630453   -4.1349419   0.12396147   -4.8226099   0.13003681 
   23100    978.68176   -18.908485   -5.5336903    0.1320499   -4.1331361   0.12092503   -4.8224983   0.12640077 
   23200    988.43568    10.042084   -5.5269482   0.12444625   -4.1444763   0.13077614   -4.8249383   0.12766053 
   23300    1004.1178   -5.0555705   -5.5364496   0.12803395   -4.1489213   0.13128722   -4.8318721   0.12968594 
   23400    963.03966   -8.3884853   -5.5407622   0.12816892    -4.137012   0.12070841   -4.8279473   0.12438053 
   23500    983.76301    26.333882   -5.5451091   0.12903117    -4.140937   0.12514349   -4.8320799   0.12705703 
   23600    1036.7293    22.280256   -5.5421383   0.13513333   -4.1377842   0.13270028   -4.8290167   0.13389784 
   23700    998.60012   -114.53437   -5.5437012   0.13129636   -4.1366445   0.12672156   -4.8292072   0.12897331 
   23800    979.92172    62.214046   -5.5529933   0.12499952   -4.1436533   0.12807439   -4.8373399   0.12656092 
   23900    1031.9096    48.970193   -5.5543211   0.13534848   -4.1491246   0.13126587   -4.8407718   0.13327536 
   24000    1017.4137   -41.271847   -5.5617316   0.13833067   -4.1489359   0.12468829   -4.8443234   0.13140316 
   24100    1037.5579   -6.0111957   -5.5627658   0.14155838   -4.1497687   0.12668321   -4.8452554   0.13400487 
   24200     977.7757    42.521489   -5.5615466    0.1330026   -4.1565994   0.11977113   -4.8481239   0.12628375 
   24300    969.44341    -22.01317   -5.5658496   0.13235916   -4.1574425   0.11827555     -4.85067    0.1252076 
   24400    1016.0227   -30.187181   -5.5574247   0.13674086   -4.1567545    0.1258755   -4.8461738   0.13122351 
   24500    1000.2678      84.8238   -5.5603449   0.13108863   -4.1613116   0.12734706   -4.8499252   0.12918869 
   24600    955.46284   -72.613453   -5.5607646   0.12330917   -4.1586414   0.12349188   -4.8487758   0.12340195 
   24700    1015.7808   -50.015265   -5.5632107   0.13233058   -4.1609391   0.13008888   -4.8511466   0.13119226 
   24800    1015.9392    40.421718   -5.5644211   0.13788085   -4.1549517   0.12474926    -4.848702   0.13121272 
   24900    1006.9366   -12.455544    -5.564155   0.13770209   -4.1569341   0.12263278   -4.8495777      0.13005 
   25000    985.33022   -31.347838   -5.5675385   0.13411236    -4.159843   0.12061688   -4.8527202   0.12725944 
   25100    996.21873    19.327199   -5.5776082   0.13629901   -4.1623754   0.12126677   -4.8589625   0.12866574 
   25200    1006.0158   -9.3555713   -5.5842044   0.14141257   -4.1604082   0.11880198   -4.8612102   0.12993107 
   25300    988.24913    22.001186   -5.5776958   0.13663227   -4.1643919   0.11891672   -4.8600296   0.12763643 
   25400    942.25885    -20.97569   -5.5745127   0.12856098   -4.1647083   0.11504293   -4.8586235    0.1216966 
   25500    1011.0419    5.0556736   -5.5760137   0.13934327   -4.1664612   0.12208615   -4.8602524   0.13058022 
   25600     1051.203    120.94006   -5.5736027   0.13985418   -4.1698167   0.13180564   -4.8607696   0.13576719 
   25700    986.06571    -47.13508   -5.5805676   0.13441871   -4.1717073     0.120507   -4.8651578   0.12735444 
   25800    1002.9333   -39.990511   -5.5789506   0.13184559   -4.1685137   0.12729131   -4.8627402   0.12953296 
   25900    968.87724    28.585123   -5.5804535   0.12964468   -4.1716996   0.12076271   -4.8650978   0.12513448 
   26000    998.49822    3.1463228   -5.5738712   0.12854065   -4.1741027   0.12936677   -4.8630782   0.12896015 
   26100    1007.8723   -17.258534   -5.5863824   0.13794352   -4.1783355   0.12263675   -4.8713857   0.13017084 
   26200    1021.0419    55.106041   -5.5862657   0.13944818   -4.1770753   0.12452788   -4.8706883   0.13187176 
   26300    1003.9022   -58.747394   -5.5854387   0.13729742   -4.1785539   0.12225326   -4.8710321    0.1296581 
   26400    989.90325   -78.097504   -5.5889243   0.13415736   -4.1815785   0.12173638   -4.8742836   0.12785007 
   26500    1032.3981    76.963157   -5.5862984   0.14036816   -4.1818205   0.12652452    -4.873114   0.13333845 
   26600    998.97041   -21.515552   -5.5903327   0.13537711   -4.1844436   0.12286024   -4.8764317   0.12902113 
   26700    987.48346   -12.571959   -5.5870581   0.13039787   -4.1904005   0.12476502   -4.8778448   0.12753754 
   26800    992.81962    20.904857   -5.5907487    0.1354707   -4.1837155   0.12120511   -4.8762667   0.12822673 
   26900    1011.9524    18.034086    -5.593287   0.13931744   -4.1844075   0.12234275   -4.8778675   0.13069781 
   27000    954.15077   -24.204828   -5.5930308   0.12879963   -4.1902077   0.11783623   -4.8806867   0.12323249 
   27100    1000.9136   -2.4135505   -5.5864316   0.13303889   -4.1914352   0.12562094   -4.8780618    0.1292721 
   27200    1007.7509    70.370783   -5.6025603   0.14053926   -4.1935708   0.12008982   -4.8870849   0.13015517 
   27300     990.7017   -56.456539   -5.6116476   0.14277602   -4.1955303   0.11358535   -4.8925528   0.12795319 
   27400    1020.0599   -24.775214   -5.6007084   0.13959995   -4.1888193   0.12413101   -4.8837606   0.13174493 
   27500    976.84297    92.826012   -5.6059374   0.13372192   -4.1883212   0.11883665   -4.8860814   0.12616328 
   27600    1000.6616   -38.140479   -5.6121215   0.13735468   -4.1881697   0.12137353   -4.8890484   0.12923956 
   27700    990.80323   -4.2457431   -5.6090013   0.13306022   -4.1875562   0.12302875   -4.8872011   0.12796631 
   27800    984.79276     15.83226   -5.6172331   0.13533024   -4.1863906   0.11929968   -4.8906609   0.12719003 
   27900    1012.5579   -27.083327   -5.6081591   0.13230401   -4.1910979   0.12929492    -4.888585   0.13077601 
   28000    1014.6105    60.254031   -5.6057514   0.13260295   -4.1901629   0.12952722   -4.8869251   0.13104111 
   28100    983.56498   -43.883455   -5.6096258   0.13055755   -4.1853256    0.1236136   -4.8863757   0.12703146 
   28200    1005.0952   -44.052334    -5.618516   0.13680714   -4.1882348   0.12303193   -4.8922288   0.12981218 
   28300    1029.0472    139.30959   -5.6216621    0.1382954   -4.1966442   0.12768138   -4.8980476   0.13290567 
   28400    956.39192   -67.334761   -5.6244239    0.1291359   -4.1986077    0.1180803   -4.9004041   0.12352194 
   28500    983.96859    17.941434   -5.6225988   0.13103299   -4.1949972   0.12325541   -4.8976723   0.12708358 
   28600    1007.8049    -15.17448   -5.6301531   0.14043052   -4.1935088   0.12020894   -4.9006348   0.13016214 
   28700    1003.8861    15.324381   -5.6224779   0.13262912   -4.2023506   0.12677417   -4.9013468   0.12965602 
   28800    968.24977    15.161396   -5.6308791    0.1332587   -4.2058545   0.11710003   -4.9072612   0.12505343 
   28900    994.97753   -49.322372   -5.6261709   0.13642308   -4.2031418   0.12083082   -4.9035663   0.12850543 
   29000    958.25034    47.238684   -5.6364365   0.13173769   -4.2149773   0.11603106   -4.9146291   0.12376197 
   29100    1027.4537    64.532196   -5.6348822   0.13961101   -4.2167063   0.12600085    -4.914742   0.13269986 
   29200    999.49655   -87.322174   -5.6254618   0.13436993   -4.2133527   0.12397033   -4.9084023   0.12908908 
   29300    994.48639    17.783063    -5.628266   0.13488324   -4.2131963   0.12219847   -4.9097031     0.128442 
   29400    994.15931    3.1989349   -5.6303804   0.13793655   -4.2095677   0.11915569   -4.9089013   0.12839976 
   29500    1024.3825   -25.315034   -5.6287257   0.13542574   -4.2156553   0.12927651   -4.9111781   0.13230321 
   29600    974.08046    80.266779    -5.634593   0.13371014   -4.2105601   0.11814545   -4.9114787   0.12580649 
   29700    973.28248    -52.23221   -5.6318723   0.13513513    -4.205636   0.11656123   -4.9076391   0.12570343 
   29800    1018.4843   0.89202553    -5.636735   0.13952071    -4.213054   0.12380706   -4.9137994   0.13154143 
   29900    1038.5078    44.148553   -5.6372013   0.14043577   -4.2162112   0.12801296   -4.9156321   0.13412755 
   30000     1013.106   -90.586145   -5.6309356   0.14191242    -4.209287   0.12012083    -4.909032    0.1308468 
Loop time of 91.0935 on 4 procs for 30000 steps with 1219 atoms

Performance: 2.845 ns/day, 8.435 hours/ns, 329.332 timesteps/s
99.6% CPU use with 4 MPI tasks x 1 OpenMP threads

MPI task timing breakdown:
Section |  min time  |  avg time  |  max time  |%varavg| %total
---------------------------------------------------------------
Pair    | 1.9999     | 35.48      | 87.835     | 553.2 | 38.95
Neigh   | 0.087145   | 0.13728    | 0.22124    |  13.6 |  0.15
Comm    | 1.0391     | 53.23      | 85.755     | 448.3 | 58.43
Output  | 0.43581    | 0.43735    | 0.44044    |   0.3 |  0.48
Modify  | 0.94841    | 1.4363     | 2.2464     |  41.6 |  1.58
Other   |            | 0.3721     |            |       |  0.41

Nlocal:        304.750 ave         516 max           6 min
Histogram: 1 0 0 1 0 0 0 0 0 2
Nghost:        297.750 ave         413 max         123 min
Histogram: 1 0 0 0 0 1 0 0 1 1
Neighs:         0.00000 ave           0 max           0 min
Histogram: 4 0 0 0 0 0 0 0 0 0
FullNghs:      8813.50 ave       15094 max          79 min
Histogram: 1 0 0 1 0 0 0 0 0 2

Total # of neighbors = 35254
Ave neighs/atom = 28.920427
Neighbor list builds = 99
Dangerous builds = 11
write_data SiC.data1_$t_$p_dt:${dt}
write_data SiC.data1_1000_$p_dt:${dt}
write_data SiC.data1_1000_2_dt:${dt}
write_data SiC.data1_1000_2_dt:0.0001
System init for write_data ...
WARNING: More than one compute ke/atom (src/compute_ke_atom.cpp:56)
WARNING: More than one compute ke/atom (src/compute_ke_atom.cpp:56)
WARNING: More than one compute ke/atom (src/compute_ke_atom.cpp:56)
Neighbor list info ...
  update every 1 steps, delay 100 steps, check yes
  max neighbors/atom: 2000, page size: 100000
  master list distance cutoff = 5.55
  ghost atom cutoff = 5.55
  binsize = 2.775, bins = 44 25 40
  1 neighbor lists, perpetual/occasional/extra = 1 0 0
  (1) pair kim, perpetual
      attributes: full, newton off, ghost, cut 5.55
      pair build: full/bin/ghost
      stencil: full/ghost/bin/3d
      bin: standard
clear
OMP_NUM_THREADS environment is not set. Defaulting to 1 thread. (src/comm.cpp:98)
  using 1 OpenMP thread(s) per MPI task
next p
jump SELF loop2
next t
jump SELF loop1
print "Done!!!"
Done!!!
Total wall time: 0:04:51
