LAMMPS (24 Dec 2020)
OMP_NUM_THREADS environment is not set. Defaulting to 1 thread. (src/comm.cpp:94)
  using 1 OpenMP thread(s) per MPI task
variable lattice_spacing equal 3.80

label loop1
variable a loop 10
print "Lattice_spacing is ${lattice_spacing}"
Lattice_spacing is 3.8

units metal
boundary f f f
atom_style atomic

lattice fcc ${lattice_spacing} origin 0 0 0
lattice fcc 3.8 origin 0 0 0
Lattice spacing in x,y,z = 3.8000000 3.8000000 3.8000000
region r1 block 0 8 0 8 0 8 units lattice side in
create_box 1 r1
Created orthogonal box = (0.0000000 0.0000000 0.0000000) to (30.400000 30.400000 30.400000)
  1 by 1 by 1 MPI processor grid
#if "$a == 1" then "create_box 1 region$a"
#if "$a > 1" then "delete_atoms group 1" #"change_box 1 boundary p p f units lattice" #"reset_timestep 0"
mass 1 26.98
create_atoms 1 region r1
Created 2048 atoms
  create_atoms CPU = 0.001 seconds
group 1 type 1
2048 atoms in group 1
pair_style kim Morse_Shifted_GirifalcoWeizer_1959HighCutoff_Al__MO_140175748626_004
pair_coeff * * Al
neighbor 2.5 bin
neigh_modify every 1 delay 1
timestep 0.001
dump 1 all atom 100 dump.Al_${lattice_spacing}
dump 1 all atom 100 dump.Al_3.8
thermo 100
thermo_style custom step temp press pe ke etotal
fix 1 all nvt temp 0.0001 0.0001 0.01
run 10000
Neighbor list info ...
  update every 1 steps, delay 1 steps, check yes
  max neighbors/atom: 2000, page size: 100000
  master list distance cutoff = 14.2567
  ghost atom cutoff = 14.2567
  binsize = 7.12835, bins = 5 5 5
  1 neighbor lists, perpetual/occasional/extra = 1 0 0
  (1) pair kim, perpetual
      attributes: full, newton off, cut 14.2567
      pair build: full/bin/atomonly
      stencil: full/bin/3d
      bin: standard
Per MPI rank memory allocation (min/avg/max) = 8.070 | 8.070 | 8.070 Mbytes
Step Temp Press PotEng KinEng TotEng 
       0            0    238271.42   -4494.1992            0   -4494.1992 
     100            0    227855.95   -4543.8839            0   -4543.8839 
     200            0    219754.23   -4578.3758            0   -4578.3758 
     300            0    213052.89   -4604.1525            0   -4604.1525 
     400            0    207343.14   -4624.4947            0   -4624.4947 
     500            0    202346.28   -4641.2076            0   -4641.2076 
     600            0    197884.13   -4655.3563            0   -4655.3563 
     700            0    193847.22   -4667.6094            0   -4667.6094 
     800            0    190149.32   -4678.4097            0   -4678.4097 
     900            0    186733.19   -4688.0634            0   -4688.0634 
    1000            0    183554.66   -4696.7904            0   -4696.7904 
    1100            0    180579.37   -4704.7532            0   -4704.7532 
    1200            0    177782.56   -4712.0756            0   -4712.0756 
    1300            0    175138.08   -4718.8536            0   -4718.8536 
    1400            0    172630.53   -4725.1628            0   -4725.1628 
    1500            0    170244.26   -4731.0645            0   -4731.0645 
    1600            0    167968.04   -4736.6085            0   -4736.6085 
    1700            0    165789.78   -4741.8358            0   -4741.8358 
    1800            0    163706.97    -4746.781            0    -4746.781 
    1900            0    161702.51   -4751.4732            0   -4751.4732 
    2000            0     159772.9    -4755.937            0    -4755.937 
    2100            0    157915.27   -4760.1936            0   -4760.1936 
    2200            0     156115.5   -4764.2613            0   -4764.2613 
    2300            0    154373.41   -4768.1559            0   -4768.1559 
    2400            0    152688.18   -4771.8915            0   -4771.8915 
    2500            0    151051.62   -4775.4803            0   -4775.4803 
    2600            0    149463.88   -4778.9332            0   -4778.9332 
    2700            0    147922.32   -4782.2598            0   -4782.2598 
    2800            0    146424.01   -4785.4689            0   -4785.4689 
    2900            0       144967   -4788.5684            0   -4788.5684 
    3000            0    143545.18   -4791.5652            0   -4791.5652 
    3100            0    142156.88   -4794.4657            0   -4794.4657 
    3200            0    140802.22   -4797.2756            0   -4797.2756 
    3300            0    139480.82   -4800.0001            0   -4800.0001 
    3400            0    138189.83   -4802.6442            0   -4802.6442 
    3500            0    136929.14    -4805.212            0    -4805.212 
    3600            0    135694.71   -4807.7078            0   -4807.7078 
    3700            0    134487.99   -4810.1353            0   -4810.1353 
    3800            0     133307.8   -4812.4978            0   -4812.4978 
    3900            0    132152.96   -4814.7986            0   -4814.7986 
    4000            0    131024.98   -4817.0406            0   -4817.0406 
    4100            0     129915.5   -4819.2267            0   -4819.2267 
    4200            0    128827.34   -4821.3593            0   -4821.3593 
    4300            0    127759.08   -4823.4407            0   -4823.4407 
    4400            0     126714.5   -4825.4733            0   -4825.4733 
    4500            0    125685.34    -4827.459            0    -4827.459 
    4600            0    124674.45   -4829.3997            0   -4829.3997 
    4700            0    123679.43   -4831.2974            0   -4831.2974 
    4800            0    122700.67   -4833.1535            0   -4833.1535 
    4900            0    121740.03   -4834.9698            0   -4834.9698 
    5000            0    120795.44   -4836.7477            0   -4836.7477 
    5100            0    119866.28   -4838.4887            0   -4838.4887 
    5200            0    118952.05   -4840.1941            0   -4840.1941 
    5300            0    118050.96   -4841.8652            0   -4841.8652 
    5400            0    117164.92   -4843.5032            0   -4843.5032 
    5500            0    116290.46   -4845.1091            0   -4845.1091 
    5600            0    115430.23   -4846.6841            0   -4846.6841 
    5700            0    114583.49   -4848.2292            0   -4848.2292 
    5800            0    113748.61   -4849.7453            0   -4849.7453 
    5900            0     112925.9   -4851.2335            0   -4851.2335 
    6000            0    112115.13   -4852.6945            0   -4852.6945 
    6100            0     111315.3   -4854.1291            0   -4854.1291 
    6200            0    110527.19   -4855.5383            0   -4855.5383 
    6300            0    109751.76   -4856.9227            0   -4856.9227 
    6400            0     108986.2   -4858.2832            0   -4858.2832 
    6500            0    108230.91   -4859.6203            0   -4859.6203 
    6600            0    107484.96   -4860.9348            0   -4860.9348 
    6700            0    106748.95   -4862.2273            0   -4862.2273 
    6800            0    106022.63   -4863.4983            0   -4863.4983 
    6900            0    105306.18   -4864.7485            0   -4864.7485 
    7000            0    104596.97   -4865.9784            0   -4865.9784 
    7100            0    103897.46   -4867.1885            0   -4867.1885 
    7200            0    103205.08   -4868.3793            0   -4868.3793 
    7300            0    102521.35   -4869.5514            0   -4869.5514 
    7400            0     101845.8   -4870.7051            0   -4870.7051 
    7500            0    101178.26    -4871.841            0    -4871.841 
    7600            0    100518.47   -4872.9594            0   -4872.9594 
    7700            0    99867.352   -4874.0608            0   -4874.0608 
    7800            0    99223.638   -4875.1456            0   -4875.1456 
    7900            0    98588.346   -4876.2142            0   -4876.2142 
    8000            0    97958.879    -4877.267            0    -4877.267 
    8100            0    97337.368   -4878.3043            0   -4878.3043 
    8200            0    96722.819   -4879.3264            0   -4879.3264 
    8300            0     96114.92   -4880.3338            0   -4880.3338 
    8400            0    95513.706   -4881.3268            0   -4881.3268 
    8500            0    94920.061   -4882.3056            0   -4882.3056 
    8600            0    94332.925   -4883.2706            0   -4883.2706 
    8700            0    93752.165    -4884.222            0    -4884.222 
    8800            0     93176.66   -4885.1603            0   -4885.1603 
    8900            0    92607.558   -4886.0855            0   -4886.0855 
    9000            0    92043.397   -4886.9981            0   -4886.9981 
    9100            0    91485.085   -4887.8981            0   -4887.8981 
    9200            0    90931.926    -4888.786            0    -4888.786 
    9300            0    90385.165   -4889.6619            0   -4889.6619 
    9400            0    89843.186    -4890.526            0    -4890.526 
    9500            0    89307.316   -4891.3786            0   -4891.3786 
    9600            0    88775.778     -4892.22            0     -4892.22 
    9700            0    88249.918   -4893.0502            0   -4893.0502 
    9800            0    87728.802   -4893.8696            0   -4893.8696 
    9900            0    87212.937   -4894.6783            0   -4894.6783 
   10000            0    86702.067   -4895.4766            0   -4895.4766 
Loop time of 104.545 on 1 procs for 10000 steps with 2048 atoms

Performance: 8.264 ns/day, 2.904 hours/ns, 95.653 timesteps/s
99.9% CPU use with 1 MPI tasks x 1 OpenMP threads

MPI task timing breakdown:
Section |  min time  |  avg time  |  max time  |%varavg| %total
---------------------------------------------------------------
Pair    | 104.04     | 104.04     | 104.04     |   0.0 | 99.52
Neigh   | 0          | 0          | 0          |   0.0 |  0.00
Comm    | 0.001891   | 0.001891   | 0.001891   |   0.0 |  0.00
Output  | 0.19382    | 0.19382    | 0.19382    |   0.0 |  0.19
Modify  | 0.24563    | 0.24563    | 0.24563    |   0.0 |  0.23
Other   |            | 0.05987    |            |       |  0.06

Nlocal:        2048.00 ave        2048 max        2048 min
Histogram: 1 0 0 0 0 0 0 0 0 0
Nghost:         0.00000 ave           0 max           0 min
Histogram: 1 0 0 0 0 0 0 0 0 0
Neighs:         0.00000 ave           0 max           0 min
Histogram: 1 0 0 0 0 0 0 0 0 0
FullNghs:  1.04511e+06 ave 1.04511e+06 max 1.04511e+06 min
Histogram: 1 0 0 0 0 0 0 0 0 0

Total # of neighbors = 1045112
Ave neighs/atom = 510.30859
Neighbor list builds = 0
Dangerous builds = 0
unfix 1
clear
OMP_NUM_THREADS environment is not set. Defaulting to 1 thread. (src/comm.cpp:94)
  using 1 OpenMP thread(s) per MPI task
variable lattice_spacing equal ${lattice_spacing}+0.05
variable lattice_spacing equal 3.8+0.05
next a
jump SELF loop1
variable a loop 10
print "Lattice_spacing is ${lattice_spacing}"
Lattice_spacing is 3.85

units metal
boundary f f f
atom_style atomic

lattice fcc ${lattice_spacing} origin 0 0 0
lattice fcc 3.85 origin 0 0 0
Lattice spacing in x,y,z = 3.8500000 3.8500000 3.8500000
region r1 block 0 8 0 8 0 8 units lattice side in
create_box 1 r1
Created orthogonal box = (0.0000000 0.0000000 0.0000000) to (30.800000 30.800000 30.800000)
  1 by 1 by 1 MPI processor grid
#if "$a == 1" then "create_box 1 region$a"
#if "$a > 1" then "delete_atoms group 1" #"change_box 1 boundary p p f units lattice" #"reset_timestep 0"
mass 1 26.98
create_atoms 1 region r1
Created 2048 atoms
  create_atoms CPU = 0.000 seconds
group 1 type 1
2048 atoms in group 1
pair_style kim Morse_Shifted_GirifalcoWeizer_1959HighCutoff_Al__MO_140175748626_004
pair_coeff * * Al
neighbor 2.5 bin
neigh_modify every 1 delay 1
timestep 0.001
dump 1 all atom 100 dump.Al_${lattice_spacing}
dump 1 all atom 100 dump.Al_3.85
thermo 100
thermo_style custom step temp press pe ke etotal
fix 1 all nvt temp 0.0001 0.0001 0.01
run 10000
Neighbor list info ...
  update every 1 steps, delay 1 steps, check yes
  max neighbors/atom: 2000, page size: 100000
  master list distance cutoff = 14.2567
  ghost atom cutoff = 14.2567
  binsize = 7.12835, bins = 5 5 5
  1 neighbor lists, perpetual/occasional/extra = 1 0 0
  (1) pair kim, perpetual
      attributes: full, newton off, cut 14.2567
      pair build: full/bin/atomonly
      stencil: full/bin/3d
      bin: standard
Per MPI rank memory allocation (min/avg/max) = 8.070 | 8.070 | 8.070 Mbytes
Step Temp Press PotEng KinEng TotEng 
       0            0    181424.91   -4640.8022            0   -4640.8022 
     100            0    173548.88   -4677.7971            0   -4677.7971 
     200            0    167314.61   -4703.7583            0   -4703.7583 
     300            0    162154.54   -4723.1764            0   -4723.1764 
     400            0     157742.6   -4738.4364            0   -4738.4364 
     500            0    153878.86   -4750.8913            0   -4750.8913 
     600            0    150433.56   -4761.3563            0   -4761.3563 
     700            0     147318.5   -4770.3499            0   -4770.3499 
     800            0    144470.38   -4778.2181            0   -4778.2181 
     900            0    141844.23   -4785.2011            0   -4785.2011 
    1000            0    139403.22   -4791.4713            0   -4791.4713 
    1100            0    137122.17   -4797.1565            0   -4797.1565 
    1200            0    134980.06   -4802.3537            0   -4802.3537 
    1300            0    132959.52   -4807.1381            0   -4807.1381 
    1400            0    131041.99   -4811.5686            0   -4811.5686 
    1500            0    129219.33   -4815.6929            0   -4815.6929 
    1600            0    127482.33   -4819.5494            0   -4819.5494 
    1700            0    125822.12   -4823.1702            0   -4823.1702 
    1800            0     124230.5   -4826.5816            0   -4826.5816 
    1900            0    122702.67   -4829.8061            0   -4829.8061 
    2000            0    121234.58   -4832.8626            0   -4832.8626 
    2100            0    119818.69   -4835.7674            0   -4835.7674 
    2200            0    118452.72   -4838.5344            0   -4838.5344 
    2300            0    117132.87   -4841.1757            0   -4841.1757 
    2400            0    115857.73   -4843.7019            0   -4843.7019 
    2500            0    114624.35   -4846.1226            0   -4846.1226 
    2600            0    113425.31   -4848.4459            0   -4848.4459 
    2700            0    112258.75   -4850.6788            0   -4850.6788 
    2800            0    111124.54    -4852.828            0    -4852.828 
    2900            0    110020.87   -4854.8991            0   -4854.8991 
    3000            0    108946.32   -4856.8974            0   -4856.8974 
    3100            0     107899.3   -4858.8276            0   -4858.8276 
    3200            0    106878.53   -4860.6939            0   -4860.6939 
    3300            0    105882.41   -4862.5003            0   -4862.5003 
    3400            0    104909.88   -4864.2502            0   -4864.2502 
    3500            0    103959.72   -4865.9469            0   -4865.9469 
    3600            0    103031.34   -4867.5934            0   -4867.5934 
    3700            0    102122.65   -4869.1923            0   -4869.1923 
    3800            0     101233.4   -4870.7462            0   -4870.7462 
    3900            0    100362.89   -4872.2573            0   -4872.2573 
    4000            0    99510.185   -4873.7277            0   -4873.7277 
    4100            0    98675.503   -4875.1595            0   -4875.1595 
    4200            0    97856.211   -4876.5544            0   -4876.5544 
    4300            0     97052.48   -4877.9142            0   -4877.9142 
    4400            0    96264.031   -4879.2404            0   -4879.2404 
    4500            0    95490.121   -4880.5346            0   -4880.5346 
    4600            0    94731.828    -4881.798            0    -4881.798 
    4700            0    93985.225   -4883.0321            0   -4883.0321 
    4800            0    93251.973   -4884.2381            0   -4884.2381 
    4900            0    92531.529   -4885.4169            0   -4885.4169 
    5000            0    91822.902   -4886.5698            0   -4886.5698 
    5100            0    91126.246   -4887.6978            0   -4887.6978 
    5200            0    90440.935   -4888.8017            0   -4888.8017 
    5300            0    89766.123   -4889.8825            0   -4889.8825 
    5400            0    89102.196    -4890.941            0    -4890.941 
    5500            0    88448.338    -4891.978            0    -4891.978 
    5600            0     87804.56   -4892.9942            0   -4892.9942 
    5700            0    87170.402   -4893.9905            0   -4893.9905 
    5800            0    86546.302   -4894.9674            0   -4894.9674 
    5900            0     85931.34   -4895.9256            0   -4895.9256 
    6000            0    85325.089   -4896.8658            0   -4896.8658 
    6100            0    84727.546   -4897.7885            0   -4897.7885 
    6200            0    84137.828   -4898.6942            0   -4898.6942 
    6300            0    83556.362   -4899.5836            0   -4899.5836 
    6400            0    82983.171    -4900.457            0    -4900.457 
    6500            0    82418.288    -4901.315            0    -4901.315 
    6600            0    81860.858   -4902.1581            0   -4902.1581 
    6700            0    81310.611   -4902.9867            0   -4902.9867 
    6800            0    80768.093   -4903.8011            0   -4903.8011 
    6900            0    80231.747   -4904.6019            0   -4904.6019 
    7000            0    79702.699   -4905.3894            0   -4905.3894 
    7100            0    79180.135   -4906.1639            0   -4906.1639 
    7200            0    78663.822   -4906.9258            0   -4906.9258 
    7300            0    78154.085   -4907.6754            0   -4907.6754 
    7400            0    77650.379   -4908.4131            0   -4908.4131 
    7500            0    77153.045   -4909.1392            0   -4909.1392 
    7600            0    76660.816   -4909.8539            0   -4909.8539 
    7700            0    76174.381   -4910.5576            0   -4910.5576 
    7800            0    75693.613   -4911.2504            0   -4911.2504 
    7900            0    75218.711   -4911.9328            0   -4911.9328 
    8000            0    74748.911   -4912.6049            0   -4912.6049 
    8100            0    74284.747   -4913.2669            0   -4913.2669 
    8200            0    73825.942   -4913.9192            0   -4913.9192 
    8300            0    73372.553    -4914.562            0    -4914.562 
    8400            0    72923.665   -4915.1954            0   -4915.1954 
    8500            0    72480.305   -4915.8197            0   -4915.8197 
    8600            0    72041.086   -4916.4351            0   -4916.4351 
    8700            0    71606.566   -4917.0418            0   -4917.0418 
    8800            0    71176.972   -4917.6399            0   -4917.6399 
    8900            0    70751.892   -4918.2297            0   -4918.2297 
    9000            0    70331.083   -4918.8114            0   -4918.8114 
    9100            0    69914.624   -4919.3851            0   -4919.3851 
    9200            0     69503.24   -4919.9509            0   -4919.9509 
    9300            0    69095.474   -4920.5091            0   -4920.5091 
    9400            0    68692.305   -4921.0598            0   -4921.0598 
    9500            0    68293.001   -4921.6032            0   -4921.6032 
    9600            0    67897.417   -4922.1394            0   -4922.1394 
    9700            0    67505.488   -4922.6685            0   -4922.6685 
    9800            0    67117.385   -4923.1907            0   -4923.1907 
    9900            0     66732.97   -4923.7061            0   -4923.7061 
   10000            0    66354.355   -4924.2148            0   -4924.2148 
Loop time of 99.7148 on 1 procs for 10000 steps with 2048 atoms

Performance: 8.665 ns/day, 2.770 hours/ns, 100.286 timesteps/s
99.9% CPU use with 1 MPI tasks x 1 OpenMP threads

MPI task timing breakdown:
Section |  min time  |  avg time  |  max time  |%varavg| %total
---------------------------------------------------------------
Pair    | 99.184     | 99.184     | 99.184     |   0.0 | 99.47
Neigh   | 0          | 0          | 0          |   0.0 |  0.00
Comm    | 0.0019934  | 0.0019934  | 0.0019934  |   0.0 |  0.00
Output  | 0.2268     | 0.2268     | 0.2268     |   0.0 |  0.23
Modify  | 0.24494    | 0.24494    | 0.24494    |   0.0 |  0.25
Other   |            | 0.05707    |            |       |  0.06

Nlocal:        2048.00 ave        2048 max        2048 min
Histogram: 1 0 0 0 0 0 0 0 0 0
Nghost:         0.00000 ave           0 max           0 min
Histogram: 1 0 0 0 0 0 0 0 0 0
Neighs:         0.00000 ave           0 max           0 min
Histogram: 1 0 0 0 0 0 0 0 0 0
FullNghs:  1.00479e+06 ave 1.00479e+06 max 1.00479e+06 min
Histogram: 1 0 0 0 0 0 0 0 0 0

Total # of neighbors = 1004792
Ave neighs/atom = 490.62109
Neighbor list builds = 0
Dangerous builds = 0
unfix 1
clear
OMP_NUM_THREADS environment is not set. Defaulting to 1 thread. (src/comm.cpp:94)
  using 1 OpenMP thread(s) per MPI task
variable lattice_spacing equal ${lattice_spacing}+0.05
variable lattice_spacing equal 3.85+0.05
next a
jump SELF loop1
variable a loop 10
print "Lattice_spacing is ${lattice_spacing}"
Lattice_spacing is 3.9

units metal
boundary f f f
atom_style atomic

lattice fcc ${lattice_spacing} origin 0 0 0
lattice fcc 3.9 origin 0 0 0
Lattice spacing in x,y,z = 3.9000000 3.9000000 3.9000000
region r1 block 0 8 0 8 0 8 units lattice side in
create_box 1 r1
Created orthogonal box = (0.0000000 0.0000000 0.0000000) to (31.200000 31.200000 31.200000)
  1 by 1 by 1 MPI processor grid
#if "$a == 1" then "create_box 1 region$a"
#if "$a > 1" then "delete_atoms group 1" #"change_box 1 boundary p p f units lattice" #"reset_timestep 0"
mass 1 26.98
create_atoms 1 region r1
Created 2048 atoms
  create_atoms CPU = 0.000 seconds
group 1 type 1
2048 atoms in group 1
pair_style kim Morse_Shifted_GirifalcoWeizer_1959HighCutoff_Al__MO_140175748626_004
pair_coeff * * Al
neighbor 2.5 bin
neigh_modify every 1 delay 1
timestep 0.001
dump 1 all atom 100 dump.Al_${lattice_spacing}
dump 1 all atom 100 dump.Al_3.9
thermo 100
thermo_style custom step temp press pe ke etotal
fix 1 all nvt temp 0.0001 0.0001 0.01
run 10000
Neighbor list info ...
  update every 1 steps, delay 1 steps, check yes
  max neighbors/atom: 2000, page size: 100000
  master list distance cutoff = 14.2567
  ghost atom cutoff = 14.2567
  binsize = 7.12835, bins = 5 5 5
  1 neighbor lists, perpetual/occasional/extra = 1 0 0
  (1) pair kim, perpetual
      attributes: full, newton off, cut 14.2567
      pair build: full/bin/atomonly
      stencil: full/bin/3d
      bin: standard
Per MPI rank memory allocation (min/avg/max) = 7.689 | 7.689 | 7.689 Mbytes
Step Temp Press PotEng KinEng TotEng 
       0            0    132683.03   -4753.3034            0   -4753.3034 
     100            0    126794.19   -4780.4958            0   -4780.4958 
     200            0    122083.52   -4799.7702            0   -4799.7702 
     300            0    118170.26   -4814.1966            0   -4814.1966 
     400            0    114815.68   -4825.4802            0   -4825.4802 
     500            0    111884.62   -4834.6194            0   -4834.6194 
     600            0    109271.23   -4842.2302            0   -4842.2302 
     700            0     106909.5   -4848.7096            0   -4848.7096 
     800            0    104751.43   -4854.3247            0   -4854.3247 
     900            0     102764.4    -4859.262            0    -4859.262 
    1000            0    100923.01    -4863.656            0    -4863.656 
    1100            0    99204.517   -4867.6062            0   -4867.6062 
    1200            0    97593.173    -4871.188            0    -4871.188 
    1300            0    96076.495   -4874.4597            0   -4874.4597 
    1400            0    94640.936   -4877.4673            0   -4877.4673 
    1500            0    93278.881   -4880.2474            0   -4880.2474 
    1600            0    91982.767     -4882.83            0     -4882.83 
    1700            0    90745.342   -4885.2394            0   -4885.2394 
    1800            0     89561.85    -4887.496            0    -4887.496 
    1900            0    88427.438   -4889.6168            0   -4889.6168 
    2000            0     87337.57   -4891.6163            0   -4891.6163 
    2100            0     86289.24   -4893.5066            0   -4893.5066 
    2200            0    85278.788   -4895.2985            0   -4895.2985 
    2300            0    84303.322   -4897.0009            0   -4897.0009 
    2400            0    83360.645   -4898.6218            0   -4898.6218 
    2500            0     82448.36   -4900.1682            0   -4900.1682 
    2600            0    81564.844   -4901.6461            0   -4901.6461 
    2700            0    80707.967   -4903.0611            0   -4903.0611 
    2800            0    79876.319   -4904.4179            0   -4904.4179 
    2900            0    79067.649   -4905.7207            0   -4905.7207 
    3000            0    78281.933   -4906.9734            0   -4906.9734 
    3100            0    77516.524   -4908.1794            0   -4908.1794 
    3200            0    76771.074   -4909.3418            0   -4909.3418 
    3300            0    76044.466   -4910.4635            0   -4910.4635 
    3400            0    75337.531    -4911.547            0    -4911.547 
    3500            0    74646.635   -4912.5946            0   -4912.5946 
    3600            0    73972.388   -4913.6085            0   -4913.6085 
    3700            0    73312.861   -4914.5905            0   -4914.5905 
    3800            0    72666.658   -4915.5425            0   -4915.5425 
    3900            0    72034.543   -4916.4659            0   -4916.4659 
    4000            0    71416.451   -4917.3624            0   -4917.3624 
    4100            0    70810.487   -4918.2333            0   -4918.2333 
    4200            0    70217.451   -4919.0799            0   -4919.0799 
    4300            0    69637.691   -4919.9034            0   -4919.9034 
    4400            0    69068.244   -4920.7049            0   -4920.7049 
    4500            0    68509.607   -4921.4855            0   -4921.4855 
    4600            0    67961.992   -4922.2461            0   -4922.2461 
    4700            0    67424.924   -4922.9876            0   -4922.9876 
    4800            0    66899.125   -4923.7108            0   -4923.7108 
    4900            0    66382.684   -4924.4166            0   -4924.4166 
    5000            0    65872.774   -4925.1058            0   -4925.1058 
    5100            0     65371.13   -4925.7788            0   -4925.7788 
    5200            0    64877.311   -4926.4364            0   -4926.4364 
    5300            0    64391.976   -4927.0792            0   -4927.0792 
    5400            0     63914.39   -4927.7077            0   -4927.7077 
    5500            0    63444.459   -4928.3225            0   -4928.3225 
    5600            0    62982.256   -4928.9242            0   -4928.9242 
    5700            0    62526.773   -4929.5131            0   -4929.5131 
    5800            0    62078.263   -4930.0898            0   -4930.0898 
    5900            0    61636.596   -4930.6547            0   -4930.6547 
    6000            0    61201.419   -4931.2081            0   -4931.2081 
    6100            0    60773.558   -4931.7506            0   -4931.7506 
    6200            0    60351.264   -4932.2825            0   -4932.2825 
    6300            0    59935.148    -4932.804            0    -4932.804 
    6400            0    59524.733   -4933.3157            0   -4933.3157 
    6500            0    59119.863   -4933.8177            0   -4933.8177 
    6600            0    58721.322   -4934.3104            0   -4934.3104 
    6700            0    58327.481   -4934.7941            0   -4934.7941 
    6800            0    57938.982   -4935.2691            0   -4935.2691 
    6900            0    57556.154   -4935.7356            0   -4935.7356 
    7000            0    57179.323   -4936.1939            0   -4936.1939 
    7100            0    56805.793   -4936.6442            0   -4936.6442 
    7200            0    56437.179   -4937.0868            0   -4937.0868 
    7300            0    56073.748   -4937.5218            0   -4937.5218 
    7400            0    55715.379   -4937.9496            0   -4937.9496 
    7500            0    55361.499   -4938.3702            0   -4938.3702 
    7600            0    55011.463    -4938.784            0    -4938.784 
    7700            0     54664.79    -4939.191            0    -4939.191 
    7800            0    54323.654   -4939.5915            0   -4939.5915 
    7900            0    53985.463   -4939.9856            0   -4939.9856 
    8000            0    53651.692   -4940.3735            0   -4940.3735 
    8100            0    53322.875   -4940.7554            0   -4940.7554 
    8200            0    52996.039   -4941.1314            0   -4941.1314 
    8300            0    52672.911   -4941.5016            0   -4941.5016 
    8400            0    52353.098   -4941.8662            0   -4941.8662 
    8500            0     52037.23   -4942.2253            0   -4942.2253 
    8600            0    51724.998   -4942.5791            0   -4942.5791 
    8700            0     51416.64   -4942.9276            0   -4942.9276 
    8800            0    51110.991   -4943.2711            0   -4943.2711 
    8900            0    50808.303   -4943.6096            0   -4943.6096 
    9000            0     50509.45   -4943.9432            0   -4943.9432 
    9100            0    50213.903   -4944.2721            0   -4944.2721 
    9200            0    49921.599   -4944.5963            0   -4944.5963 
    9300            0    49631.852    -4944.916            0    -4944.916 
    9400            0    49345.232   -4945.2312            0   -4945.2312 
    9500            0    49061.756   -4945.5421            0   -4945.5421 
    9600            0     48781.06   -4945.8488            0   -4945.8488 
    9700            0    48502.786   -4946.1513            0   -4946.1513 
    9800            0    48227.665   -4946.4497            0   -4946.4497 
    9900            0     47955.57   -4946.7441            0   -4946.7441 
   10000            0    47685.436   -4947.0346            0   -4947.0346 
Loop time of 95.8124 on 1 procs for 10000 steps with 2048 atoms

Performance: 9.018 ns/day, 2.661 hours/ns, 104.371 timesteps/s
99.9% CPU use with 1 MPI tasks x 1 OpenMP threads

MPI task timing breakdown:
Section |  min time  |  avg time  |  max time  |%varavg| %total
---------------------------------------------------------------
Pair    | 95.34      | 95.34      | 95.34      |   0.0 | 99.51
Neigh   | 0          | 0          | 0          |   0.0 |  0.00
Comm    | 0.0017769  | 0.0017769  | 0.0017769  |   0.0 |  0.00
Output  | 0.17109    | 0.17109    | 0.17109    |   0.0 |  0.18
Modify  | 0.2426     | 0.2426     | 0.2426     |   0.0 |  0.25
Other   |            | 0.05687    |            |       |  0.06

Nlocal:        2048.00 ave        2048 max        2048 min
Histogram: 1 0 0 0 0 0 0 0 0 0
Nghost:         0.00000 ave           0 max           0 min
Histogram: 1 0 0 0 0 0 0 0 0 0
Neighs:         0.00000 ave           0 max           0 min
Histogram: 1 0 0 0 0 0 0 0 0 0
FullNghs:      918824.0 ave      918824 max      918824 min
Histogram: 1 0 0 0 0 0 0 0 0 0

Total # of neighbors = 918824
Ave neighs/atom = 448.64453
Neighbor list builds = 0
Dangerous builds = 0
unfix 1
clear
OMP_NUM_THREADS environment is not set. Defaulting to 1 thread. (src/comm.cpp:94)
  using 1 OpenMP thread(s) per MPI task
variable lattice_spacing equal ${lattice_spacing}+0.05
variable lattice_spacing equal 3.9+0.05
next a
jump SELF loop1
variable a loop 10
print "Lattice_spacing is ${lattice_spacing}"
Lattice_spacing is 3.95

units metal
boundary f f f
atom_style atomic

lattice fcc ${lattice_spacing} origin 0 0 0
lattice fcc 3.95 origin 0 0 0
Lattice spacing in x,y,z = 3.9500000 3.9500000 3.9500000
region r1 block 0 8 0 8 0 8 units lattice side in
create_box 1 r1
Created orthogonal box = (0.0000000 0.0000000 0.0000000) to (31.600000 31.600000 31.600000)
  1 by 1 by 1 MPI processor grid
#if "$a == 1" then "create_box 1 region$a"
#if "$a > 1" then "delete_atoms group 1" #"change_box 1 boundary p p f units lattice" #"reset_timestep 0"
mass 1 26.98
create_atoms 1 region r1
Created 2048 atoms
  create_atoms CPU = 0.000 seconds
group 1 type 1
2048 atoms in group 1
pair_style kim Morse_Shifted_GirifalcoWeizer_1959HighCutoff_Al__MO_140175748626_004
pair_coeff * * Al
neighbor 2.5 bin
neigh_modify every 1 delay 1
timestep 0.001
dump 1 all atom 100 dump.Al_${lattice_spacing}
dump 1 all atom 100 dump.Al_3.95
thermo 100
thermo_style custom step temp press pe ke etotal
fix 1 all nvt temp 0.0001 0.0001 0.01
run 10000
Neighbor list info ...
  update every 1 steps, delay 1 steps, check yes
  max neighbors/atom: 2000, page size: 100000
  master list distance cutoff = 14.2567
  ghost atom cutoff = 14.2567
  binsize = 7.12835, bins = 5 5 5
  1 neighbor lists, perpetual/occasional/extra = 1 0 0
  (1) pair kim, perpetual
      attributes: full, newton off, cut 14.2567
      pair build: full/bin/atomonly
      stencil: full/bin/3d
      bin: standard
Per MPI rank memory allocation (min/avg/max) = 7.689 | 7.689 | 7.689 Mbytes
Step Temp Press PotEng KinEng TotEng 
       0            0    91304.648   -4835.5377            0   -4835.5377 
     100            0    86959.255   -4855.2613            0   -4855.2613 
     200            0    83449.694    -4869.374            0    -4869.374 
     300            0    80518.298   -4879.9427            0   -4879.9427 
     400            0    78005.043   -4888.1663            0   -4888.1663 
     500            0    75805.973   -4894.7704            0   -4894.7704 
     600            0    73850.707    -4900.213            0    -4900.213 
     700            0     72089.79   -4904.7943            0   -4904.7943 
     800            0    70487.319   -4908.7187            0   -4908.7187 
     900            0    69016.479   -4912.1294            0   -4912.1294 
    1000            0    67656.742   -4915.1302            0   -4915.1302 
    1100            0     66392.06   -4917.7978            0   -4917.7978 
    1200            0    65209.653   -4920.1904            0   -4920.1904 
    1300            0    64099.252   -4922.3529            0   -4922.3529 
    1400            0    63052.365   -4924.3208            0   -4924.3208 
    1500            0    62061.721    -4926.122            0    -4926.122 
    1600            0    61121.697   -4927.7795            0   -4927.7795 
    1700            0    60227.864   -4929.3118            0   -4929.3118 
    1800            0    59374.259   -4930.7344            0   -4930.7344 
    1900            0    58558.103   -4932.0601            0   -4932.0601 
    2000            0    57776.323   -4933.2998            0   -4933.2998 
    2100            0    57027.292   -4934.4627            0   -4934.4627 
    2200            0    56306.701   -4935.5567            0   -4935.5567 
    2300            0    55611.798   -4936.5885            0   -4936.5885 
    2400            0      54941.7    -4937.564            0    -4937.564 
    2500            0     54294.97   -4938.4883            0   -4938.4883 
    2600            0    53670.783    -4939.366            0    -4939.366 
    2700            0    53065.635   -4940.2009            0   -4940.2009 
    2800            0    52479.173   -4940.9965            0   -4940.9965 
    2900            0    51910.551   -4941.7559            0   -4941.7559 
    3000            0    51358.348   -4942.4819            0   -4942.4819 
    3100            0    50821.767    -4943.177            0    -4943.177 
    3200            0    50300.086   -4943.8432            0   -4943.8432 
    3300            0    49792.501   -4944.4828            0   -4944.4828 
    3400            0     49298.13   -4945.0974            0   -4945.0974 
    3500            0    48816.815   -4945.6887            0   -4945.6887 
    3600            0    48347.326   -4946.2581            0   -4946.2581 
    3700            0    47889.236   -4946.8071            0   -4946.8071 
    3800            0    47441.709   -4947.3369            0   -4947.3369 
    3900            0    47004.548   -4947.8486            0   -4947.8486 
    4000            0    46577.362   -4948.3431            0   -4948.3431 
    4100            0    46159.791   -4948.8216            0   -4948.8216 
    4200            0      45752.1   -4949.2848            0   -4949.2848 
    4300            0     45353.44   -4949.7336            0   -4949.7336 
    4400            0     44963.68   -4950.1688            0   -4950.1688 
    4500            0     44581.43   -4950.5911            0   -4950.5911 
    4600            0    44206.241    -4951.001            0    -4951.001 
    4700            0    43838.124   -4951.3992            0   -4951.3992 
    4800            0    43477.851   -4951.7862            0   -4951.7862 
    4900            0    43123.507   -4952.1626            0   -4952.1626 
    5000            0    42775.307   -4952.5289            0   -4952.5289 
    5100            0    42433.321   -4952.8854            0   -4952.8854 
    5200            0     42097.48   -4953.2326            0   -4953.2326 
    5300            0    41767.571   -4953.5709            0   -4953.5709 
    5400            0    41443.396   -4953.9006            0   -4953.9006 
    5500            0    41125.363   -4954.2223            0   -4954.2223 
    5600            0    40812.087    -4954.536            0    -4954.536 
    5700            0    40504.451   -4954.8423            0   -4954.8423 
    5800            0    40202.511   -4955.1414            0   -4955.1414 
    5900            0    39905.056   -4955.4335            0   -4955.4335 
    6000            0    39612.019    -4955.719            0    -4955.719 
    6100            0    39323.707    -4955.998            0    -4955.998 
    6200            0    39039.466   -4956.2709            0   -4956.2709 
    6300            0    38760.065   -4956.5378            0   -4956.5378 
    6400            0    38484.854    -4956.799            0    -4956.799 
    6500            0    38214.011   -4957.0546            0   -4957.0546 
    6600            0    37946.973   -4957.3049            0   -4957.3049 
    6700            0    37683.331   -4957.5501            0   -4957.5501 
    6800            0     37423.14   -4957.7902            0   -4957.7902 
    6900            0    37166.455   -4958.0255            0   -4958.0255 
    7000            0    36913.779   -4958.2562            0   -4958.2562 
    7100            0    36664.265   -4958.4823            0   -4958.4823 
    7200            0    36418.579    -4958.704            0    -4958.704 
    7300            0    36176.105   -4958.9215            0   -4958.9215 
    7400            0    35937.213   -4959.1349            0   -4959.1349 
    7500            0    35701.442   -4959.3444            0   -4959.3444 
    7600            0    35468.421   -4959.5499            0   -4959.5499 
    7700            0    35238.155   -4959.7518            0   -4959.7518 
    7800            0    35010.876     -4959.95            0     -4959.95 
    7900            0    34786.516   -4960.1447            0   -4960.1447 
    8000            0    34564.708   -4960.3359            0   -4960.3359 
    8100            0    34345.392   -4960.5238            0   -4960.5238 
    8200            0     34128.66   -4960.7085            0   -4960.7085 
    8300            0    33914.826     -4960.89            0     -4960.89 
    8400            0    33703.234   -4961.0685            0   -4961.0685 
    8500            0    33494.429    -4961.244            0    -4961.244 
    8600            0    33288.204   -4961.4166            0   -4961.4166 
    8700            0    33084.059   -4961.5864            0   -4961.5864 
    8800            0     32882.17   -4961.7534            0   -4961.7534 
    8900            0    32682.491   -4961.9177            0   -4961.9177 
    9000            0    32485.049   -4962.0794            0   -4962.0794 
    9100            0    32290.025   -4962.2386            0   -4962.2386 
    9200            0     32097.07   -4962.3953            0   -4962.3953 
    9300            0    31906.071   -4962.5496            0   -4962.5496 
    9400            0    31717.136   -4962.7015            0   -4962.7015 
    9500            0    31530.225   -4962.8511            0   -4962.8511 
    9600            0      31345.3   -4962.9984            0   -4962.9984 
    9700            0    31162.621   -4963.1436            0   -4963.1436 
    9800            0     30981.55   -4963.2866            0   -4963.2866 
    9900            0    30802.654   -4963.4275            0   -4963.4275 
   10000            0    30625.594   -4963.5664            0   -4963.5664 
Loop time of 94.2042 on 1 procs for 10000 steps with 2048 atoms

Performance: 9.172 ns/day, 2.617 hours/ns, 106.152 timesteps/s
100.0% CPU use with 1 MPI tasks x 1 OpenMP threads

MPI task timing breakdown:
Section |  min time  |  avg time  |  max time  |%varavg| %total
---------------------------------------------------------------
Pair    | 93.742     | 93.742     | 93.742     |   0.0 | 99.51
Neigh   | 0          | 0          | 0          |   0.0 |  0.00
Comm    | 0.0019521  | 0.0019521  | 0.0019521  |   0.0 |  0.00
Output  | 0.16027    | 0.16027    | 0.16027    |   0.0 |  0.17
Modify  | 0.24321    | 0.24321    | 0.24321    |   0.0 |  0.26
Other   |            | 0.05706    |            |       |  0.06

Nlocal:        2048.00 ave        2048 max        2048 min
Histogram: 1 0 0 0 0 0 0 0 0 0
Nghost:         0.00000 ave           0 max           0 min
Histogram: 1 0 0 0 0 0 0 0 0 0
Neighs:         0.00000 ave           0 max           0 min
Histogram: 1 0 0 0 0 0 0 0 0 0
FullNghs:      918824.0 ave      918824 max      918824 min
Histogram: 1 0 0 0 0 0 0 0 0 0

Total # of neighbors = 918824
Ave neighs/atom = 448.64453
Neighbor list builds = 0
Dangerous builds = 0
unfix 1
clear
OMP_NUM_THREADS environment is not set. Defaulting to 1 thread. (src/comm.cpp:94)
  using 1 OpenMP thread(s) per MPI task
variable lattice_spacing equal ${lattice_spacing}+0.05
variable lattice_spacing equal 3.95+0.05
next a
jump SELF loop1
variable a loop 10
print "Lattice_spacing is ${lattice_spacing}"
Lattice_spacing is 4

units metal
boundary f f f
atom_style atomic

lattice fcc ${lattice_spacing} origin 0 0 0
lattice fcc 4 origin 0 0 0
Lattice spacing in x,y,z = 4.0000000 4.0000000 4.0000000
region r1 block 0 8 0 8 0 8 units lattice side in
create_box 1 r1
Created orthogonal box = (0.0000000 0.0000000 0.0000000) to (32.000000 32.000000 32.000000)
  1 by 1 by 1 MPI processor grid
#if "$a == 1" then "create_box 1 region$a"
#if "$a > 1" then "delete_atoms group 1" #"change_box 1 boundary p p f units lattice" #"reset_timestep 0"
mass 1 26.98
create_atoms 1 region r1
Created 2048 atoms
  create_atoms CPU = 0.000 seconds
group 1 type 1
2048 atoms in group 1
pair_style kim Morse_Shifted_GirifalcoWeizer_1959HighCutoff_Al__MO_140175748626_004
pair_coeff * * Al
neighbor 2.5 bin
neigh_modify every 1 delay 1
timestep 0.001
dump 1 all atom 100 dump.Al_${lattice_spacing}
dump 1 all atom 100 dump.Al_4
thermo 100
thermo_style custom step temp press pe ke etotal
fix 1 all nvt temp 0.0001 0.0001 0.01
run 10000
Neighbor list info ...
  update every 1 steps, delay 1 steps, check yes
  max neighbors/atom: 2000, page size: 100000
  master list distance cutoff = 14.2567
  ghost atom cutoff = 14.2567
  binsize = 7.12835, bins = 5 5 5
  1 neighbor lists, perpetual/occasional/extra = 1 0 0
  (1) pair kim, perpetual
      attributes: full, newton off, cut 14.2567
      pair build: full/bin/atomonly
      stencil: full/bin/3d
      bin: standard
Per MPI rank memory allocation (min/avg/max) = 7.689 | 7.689 | 7.689 Mbytes
Step Temp Press PotEng KinEng TotEng 
       0            0    56128.904   -4890.9451            0   -4890.9451 
     100            0    52975.892   -4905.0618            0   -4905.0618 
     200            0    50409.938   -4915.2575            0   -4915.2575 
     300            0    48260.847   -4922.9014            0   -4922.9014 
     400            0    46418.947   -4928.8213            0   -4928.8213 
     500            0    44811.122   -4933.5349            0   -4933.5349 
     600            0    43387.183    -4937.377            0    -4937.377 
     700            0    42110.059   -4940.5713            0   -4940.5713 
     800            0    40953.505   -4943.2715            0   -4943.2715 
     900            0     39897.45   -4945.5866            0   -4945.5866 
    1000            0    38924.832   -4947.5953            0   -4947.5953 
    1100            0     38025.07   -4949.3564            0   -4949.3564 
    1200            0    37188.691   -4950.9144            0   -4950.9144 
    1300            0    36409.729   -4952.3036            0   -4952.3036 
    1400            0    35675.593   -4953.5509            0   -4953.5509 
    1500            0    34984.885   -4954.6777            0   -4954.6777 
    1600            0    34331.901   -4955.7012            0   -4955.7012 
    1700            0     33713.07   -4956.6354            0   -4956.6354 
    1800            0    33126.383    -4957.492            0    -4957.492 
    1900            0    32567.242   -4958.2806            0   -4958.2806 
    2000            0    32034.478   -4959.0092            0   -4959.0092 
    2100            0    31523.892   -4959.6848            0   -4959.6848 
    2200            0    31036.333    -4960.313            0    -4960.313 
    2300            0    30567.794   -4960.8989            0   -4960.8989 
    2400            0    30118.375   -4961.4467            0   -4961.4467 
    2500            0     29686.16   -4961.9603            0   -4961.9603 
    2600            0    29271.101   -4962.4427            0   -4962.4427 
    2700            0    28870.097    -4962.897            0    -4962.897 
    2800            0    28482.972   -4963.3256            0   -4963.3256 
    2900            0    28108.778   -4963.7306            0   -4963.7306 
    3000            0    27747.218   -4964.1141            0   -4964.1141 
    3100            0    27398.498   -4964.4778            0   -4964.4778 
    3200            0     27059.77   -4964.8232            0   -4964.8232 
    3300            0    26730.225   -4965.1518            0   -4965.1518 
    3400            0    26410.461   -4965.4648            0   -4965.4648 
    3500            0    26099.457   -4965.7632            0   -4965.7632 
    3600            0     25797.32   -4966.0482            0   -4966.0482 
    3700            0    25503.895   -4966.3207            0   -4966.3207 
    3800            0    25218.194   -4966.5814            0   -4966.5814 
    3900            0    24939.259   -4966.8311            0   -4966.8311 
    4000            0    24668.623   -4967.0706            0   -4967.0706 
    4100            0    24403.636   -4967.3006            0   -4967.3006 
    4200            0    24145.157   -4967.5214            0   -4967.5214 
    4300            0    23893.619   -4967.7338            0   -4967.7338 
    4400            0    23647.596   -4967.9382            0   -4967.9382 
    4500            0    23407.273    -4968.135            0    -4968.135 
    4600            0    23172.414   -4968.3248            0   -4968.3248 
    4700            0    22942.511   -4968.5077            0   -4968.5077 
    4800            0    22718.075   -4968.6844            0   -4968.6844 
    4900            0    22498.043   -4968.8549            0   -4968.8549 
    5000            0    22282.522   -4969.0198            0   -4969.0198 
    5100            0    22071.483   -4969.1792            0   -4969.1792 
    5200            0    21864.903   -4969.3334            0   -4969.3334 
    5300            0    21662.336   -4969.4828            0   -4969.4828 
    5400            0    21463.638   -4969.6274            0   -4969.6274 
    5500            0    21268.811   -4969.7676            0   -4969.7676 
    5600            0    21077.866   -4969.9035            0   -4969.9035 
    5700            0    20890.388   -4970.0353            0   -4970.0353 
    5800            0    20706.547   -4970.1633            0   -4970.1633 
    5900            0    20526.367   -4970.2875            0   -4970.2875 
    6000            0    20349.021   -4970.4082            0   -4970.4082 
    6100            0    20174.837   -4970.5255            0   -4970.5255 
    6200            0    20003.719   -4970.6395            0   -4970.6395 
    6300            0    19835.571   -4970.7504            0   -4970.7504 
    6400            0    19670.302   -4970.8583            0   -4970.8583 
    6500            0    19507.826   -4970.9634            0   -4970.9634 
    6600            0    19348.061   -4971.0656            0   -4971.0656 
    6700            0    19190.928   -4971.1652            0   -4971.1652 
    6800            0    19036.351   -4971.2623            0   -4971.2623 
    6900            0    18884.257   -4971.3569            0   -4971.3569 
    7000            0    18734.577   -4971.4491            0   -4971.4491 
    7100            0    18587.244   -4971.5391            0   -4971.5391 
    7200            0    18442.194   -4971.6268            0   -4971.6268 
    7300            0    18299.367   -4971.7125            0   -4971.7125 
    7400            0    18158.702   -4971.7961            0   -4971.7961 
    7500            0    18020.143   -4971.8777            0   -4971.8777 
    7600            0    17883.635   -4971.9575            0   -4971.9575 
    7700            0    17749.126   -4972.0354            0   -4972.0354 
    7800            0    17616.566   -4972.1115            0   -4972.1115 
    7900            0    17486.049    -4972.186            0    -4972.186 
    8000            0    17357.239   -4972.2587            0   -4972.2587 
    8100            0    17230.237   -4972.3299            0   -4972.3299 
    8200            0    17104.999   -4972.3995            0   -4972.3995 
    8300            0    16981.482   -4972.4677            0   -4972.4677 
    8400            0    16859.718   -4972.5343            0   -4972.5343 
    8500            0    16739.522   -4972.5996            0   -4972.5996 
    8600            0    16621.001   -4972.6635            0   -4972.6635 
    8700            0    16504.119   -4972.7261            0   -4972.7261 
    8800            0    16388.696   -4972.7875            0   -4972.7875 
    8900            0    16274.697   -4972.8475            0   -4972.8475 
    9000            0    16162.163   -4972.9064            0   -4972.9064 
    9100            0    16051.277   -4972.9641            0   -4972.9641 
    9200            0    15941.574   -4973.0207            0   -4973.0207 
    9300            0    15833.386   -4973.0762            0   -4973.0762 
    9400            0    15726.396   -4973.1306            0   -4973.1306 
    9500            0    15620.863    -4973.184            0    -4973.184 
    9600            0    15516.471   -4973.2364            0   -4973.2364 
    9700            0    15413.339   -4973.2878            0   -4973.2878 
    9800            0    15311.657   -4973.3382            0   -4973.3382 
    9900            0    15211.109   -4973.3877            0   -4973.3877 
   10000            0    15111.673   -4973.4363            0   -4973.4363 
Loop time of 92.1857 on 1 procs for 10000 steps with 2048 atoms

Performance: 9.372 ns/day, 2.561 hours/ns, 108.477 timesteps/s
100.0% CPU use with 1 MPI tasks x 1 OpenMP threads

MPI task timing breakdown:
Section |  min time  |  avg time  |  max time  |%varavg| %total
---------------------------------------------------------------
Pair    | 91.73      | 91.73      | 91.73      |   0.0 | 99.51
Neigh   | 0          | 0          | 0          |   0.0 |  0.00
Comm    | 0.001901   | 0.001901   | 0.001901   |   0.0 |  0.00
Output  | 0.15101    | 0.15101    | 0.15101    |   0.0 |  0.16
Modify  | 0.24533    | 0.24533    | 0.24533    |   0.0 |  0.27
Other   |            | 0.05766    |            |       |  0.06

Nlocal:        2048.00 ave        2048 max        2048 min
Histogram: 1 0 0 0 0 0 0 0 0 0
Nghost:         0.00000 ave           0 max           0 min
Histogram: 1 0 0 0 0 0 0 0 0 0
Neighs:         0.00000 ave           0 max           0 min
Histogram: 1 0 0 0 0 0 0 0 0 0
FullNghs:      895784.0 ave      895784 max      895784 min
Histogram: 1 0 0 0 0 0 0 0 0 0

Total # of neighbors = 895784
Ave neighs/atom = 437.39453
Neighbor list builds = 0
Dangerous builds = 0
unfix 1
clear
OMP_NUM_THREADS environment is not set. Defaulting to 1 thread. (src/comm.cpp:94)
  using 1 OpenMP thread(s) per MPI task
variable lattice_spacing equal ${lattice_spacing}+0.05
variable lattice_spacing equal 4+0.05
next a
jump SELF loop1
variable a loop 10
print "Lattice_spacing is ${lattice_spacing}"
Lattice_spacing is 4.05

units metal
boundary f f f
atom_style atomic

lattice fcc ${lattice_spacing} origin 0 0 0
lattice fcc 4.05 origin 0 0 0
Lattice spacing in x,y,z = 4.0500000 4.0500000 4.0500000
region r1 block 0 8 0 8 0 8 units lattice side in
create_box 1 r1
Created orthogonal box = (0.0000000 0.0000000 0.0000000) to (32.400000 32.400000 32.400000)
  1 by 1 by 1 MPI processor grid
#if "$a == 1" then "create_box 1 region$a"
#if "$a > 1" then "delete_atoms group 1" #"change_box 1 boundary p p f units lattice" #"reset_timestep 0"
mass 1 26.98
create_atoms 1 region r1
Created 2048 atoms
  create_atoms CPU = 0.000 seconds
group 1 type 1
2048 atoms in group 1
pair_style kim Morse_Shifted_GirifalcoWeizer_1959HighCutoff_Al__MO_140175748626_004
pair_coeff * * Al
neighbor 2.5 bin
neigh_modify every 1 delay 1
timestep 0.001
dump 1 all atom 100 dump.Al_${lattice_spacing}
dump 1 all atom 100 dump.Al_4.05
thermo 100
thermo_style custom step temp press pe ke etotal
fix 1 all nvt temp 0.0001 0.0001 0.01
run 10000
Neighbor list info ...
  update every 1 steps, delay 1 steps, check yes
  max neighbors/atom: 2000, page size: 100000
  master list distance cutoff = 14.2567
  ghost atom cutoff = 14.2567
  binsize = 7.12835, bins = 5 5 5
  1 neighbor lists, perpetual/occasional/extra = 1 0 0
  (1) pair kim, perpetual
      attributes: full, newton off, cut 14.2567
      pair build: full/bin/atomonly
      stencil: full/bin/3d
      bin: standard
Per MPI rank memory allocation (min/avg/max) = 7.307 | 7.307 | 7.307 Mbytes
Step Temp Press PotEng KinEng TotEng 
       0            0     26568.96   -4922.6639            0   -4922.6639 
     100            0    24329.168    -4932.653            0    -4932.653 
     200            0    22496.734   -4939.9436            0   -4939.9436 
     300            0    20960.903   -4945.4268            0   -4945.4268 
     400            0    19647.726   -4949.6628            0   -4949.6628 
     500            0    18506.119   -4953.0139            0   -4953.0139 
     600            0    17500.422     -4955.72            0     -4955.72 
     700            0    16603.129   -4957.9446            0   -4957.9446 
     800            0    15795.787   -4959.8017            0   -4959.8017 
     900            0    15063.958   -4961.3728            0   -4961.3728 
    1000            0    14395.609   -4962.7172            0   -4962.7172 
    1100            0    13782.793   -4963.8792            0   -4963.8792 
    1200            0    13215.382   -4964.8925            0   -4964.8925 
    1300            0    12690.046    -4965.783            0    -4965.783 
    1400            0    12201.853    -4966.571            0    -4966.571 
    1500            0    11744.384   -4967.2725            0   -4967.2725 
    1600            0    11316.334   -4967.9006            0   -4967.9006 
    1700            0    10913.361   -4968.4658            0   -4968.4658 
    1800            0    10534.194   -4968.9767            0   -4968.9767 
    1900            0    10176.865   -4969.4403            0   -4969.4403 
    2000            0    9838.7106   -4969.8627            0   -4969.8627 
    2100            0    9518.1435    -4970.249            0    -4970.249 
    2200            0    9213.5682   -4970.6032            0   -4970.6032 
    2300            0    8923.2085   -4970.9291            0   -4970.9291 
    2400            0    8647.1075   -4971.2297            0   -4971.2297 
    2500            0    8383.6194   -4971.5078            0   -4971.5078 
    2600            0    8131.6221   -4971.7656            0   -4971.7656 
    2700            0    7891.2716   -4972.0052            0   -4972.0052 
    2800            0    7660.4997   -4972.2283            0   -4972.2283 
    2900            0    7438.9881   -4972.4365            0   -4972.4365 
    3000            0    7226.6176   -4972.6311            0   -4972.6311 
    3100            0    7022.6246   -4972.8134            0   -4972.8134 
    3200            0    6825.8772   -4972.9844            0   -4972.9844 
    3300            0    6636.8888   -4973.1451            0   -4973.1451 
    3400            0     6455.027   -4973.2963            0   -4973.2963 
    3500            0    6279.7631   -4973.4388            0   -4973.4388 
    3600            0    6109.9705   -4973.5733            0   -4973.5733 
    3700            0    5946.7815   -4973.7004            0   -4973.7004 
    3800            0    5788.4926   -4973.8206            0   -4973.8206 
    3900            0    5635.8681   -4973.9345            0   -4973.9345 
    4000            0    5487.8069   -4974.0425            0   -4974.0425 
    4100            0    5344.6909   -4974.1451            0   -4974.1451 
    4200            0    5205.8735   -4974.2426            0   -4974.2426 
    4300            0    5071.7688   -4974.3353            0   -4974.3353 
    4400            0    4941.8983   -4974.4237            0   -4974.4237 
    4500            0    4816.1454   -4974.5079            0   -4974.5079 
    4600            0    4694.2643   -4974.5882            0   -4974.5882 
    4700            0    4576.0225   -4974.6649            0   -4974.6649 
    4800            0    4461.1949   -4974.7382            0   -4974.7382 
    4900            0    4348.9407   -4974.8083            0   -4974.8083 
    5000            0       4240.1   -4974.8754            0   -4974.8754 
    5100            0    4134.2645   -4974.9397            0   -4974.9397 
    5200            0    4031.5929   -4975.0013            0   -4975.0013 
    5300            0    3931.1341   -4975.0604            0   -4975.0604 
    5400            0    3833.8257   -4975.1171            0   -4975.1171 
    5500            0    3738.7284   -4975.1716            0   -4975.1716 
    5600            0    3646.1645    -4975.224            0    -4975.224 
    5700            0    3556.5996   -4975.2743            0   -4975.2743 
    5800            0    3468.5519   -4975.3228            0   -4975.3228 
    5900            0    3382.9157   -4975.3694            0   -4975.3694 
    6000            0    3299.4033   -4975.4144            0   -4975.4144 
    6100            0    3218.0791   -4975.4577            0   -4975.4577 
    6200            0    3138.4535   -4975.4994            0   -4975.4994 
    6300            0    3061.0166   -4975.5397            0   -4975.5397 
    6400            0    2985.2853   -4975.5786            0   -4975.5786 
    6500            0    2910.5703   -4975.6161            0   -4975.6161 
    6600            0    2837.8596   -4975.6524            0   -4975.6524 
    6700            0    2767.1668   -4975.6875            0   -4975.6875 
    6800            0    2697.8807   -4975.7214            0   -4975.7214 
    6900            0    2630.5759   -4975.7541            0   -4975.7541 
    7000            0    2564.4377   -4975.7859            0   -4975.7859 
    7100            0    2499.9078   -4975.8166            0   -4975.8166 
    7200            0    2436.7311   -4975.8464            0   -4975.8464 
    7300            0    2375.0048   -4975.8752            0   -4975.8752 
    7400            0    2314.1991   -4975.9031            0   -4975.9031 
    7500            0    2254.4839   -4975.9302            0   -4975.9302 
    7600            0    2196.8671   -4975.9565            0   -4975.9565 
    7700            0    2140.1946    -4975.982            0    -4975.982 
    7800            0    2084.5031   -4976.0067            0   -4976.0067 
    7900            0    2029.8986   -4976.0307            0   -4976.0307 
    8000            0    1976.7659   -4976.0541            0   -4976.0541 
    8100            0    1924.3079   -4976.0767            0   -4976.0767 
    8200            0     1872.982   -4976.0987            0   -4976.0987 
    8300            0    1822.9689   -4976.1202            0   -4976.1202 
    8400            0    1774.1012    -4976.141            0    -4976.141 
    8500            0    1726.0031   -4976.1612            0   -4976.1612 
    8600            0    1678.8587   -4976.1809            0   -4976.1809 
    8700            0    1632.0837   -4976.2001            0   -4976.2001 
    8800            0    1586.8398   -4976.2188            0   -4976.2188 
    8900            0     1542.616    -4976.237            0    -4976.237 
    9000            0    1498.9022   -4976.2547            0   -4976.2547 
    9100            0    1455.6074   -4976.2719            0   -4976.2719 
    9200            0     1414.036   -4976.2887            0   -4976.2887 
    9300            0    1373.0517   -4976.3051            0   -4976.3051 
    9400            0    1332.9137   -4976.3211            0   -4976.3211 
    9500            0    1293.8825   -4976.3367            0   -4976.3367 
    9600            0    1255.4518   -4976.3519            0   -4976.3519 
    9700            0    1217.4638   -4976.3667            0   -4976.3667 
    9800            0    1179.7616   -4976.3812            0   -4976.3812 
    9900            0    1143.3751   -4976.3953            0   -4976.3953 
   10000            0    1107.5912   -4976.4091            0   -4976.4091 
Loop time of 85.8738 on 1 procs for 10000 steps with 2048 atoms

Performance: 10.061 ns/day, 2.385 hours/ns, 116.450 timesteps/s
100.0% CPU use with 1 MPI tasks x 1 OpenMP threads

MPI task timing breakdown:
Section |  min time  |  avg time  |  max time  |%varavg| %total
---------------------------------------------------------------
Pair    | 85.413     | 85.413     | 85.413     |   0.0 | 99.46
Neigh   | 0          | 0          | 0          |   0.0 |  0.00
Comm    | 0.001888   | 0.001888   | 0.001888   |   0.0 |  0.00
Output  | 0.1603     | 0.1603     | 0.1603     |   0.0 |  0.19
Modify  | 0.24316    | 0.24316    | 0.24316    |   0.0 |  0.28
Other   |            | 0.05571    |            |       |  0.06

Nlocal:        2048.00 ave        2048 max        2048 min
Histogram: 1 0 0 0 0 0 0 0 0 0
Nghost:         0.00000 ave           0 max           0 min
Histogram: 1 0 0 0 0 0 0 0 0 0
Neighs:         0.00000 ave           0 max           0 min
Histogram: 1 0 0 0 0 0 0 0 0 0
FullNghs:      817064.0 ave      817064 max      817064 min
Histogram: 1 0 0 0 0 0 0 0 0 0

Total # of neighbors = 817064
Ave neighs/atom = 398.95703
Neighbor list builds = 0
Dangerous builds = 0
unfix 1
clear
OMP_NUM_THREADS environment is not set. Defaulting to 1 thread. (src/comm.cpp:94)
  using 1 OpenMP thread(s) per MPI task
variable lattice_spacing equal ${lattice_spacing}+0.05
variable lattice_spacing equal 4.05+0.05
next a
jump SELF loop1
variable a loop 10
print "Lattice_spacing is ${lattice_spacing}"
Lattice_spacing is 4.1

units metal
boundary f f f
atom_style atomic

lattice fcc ${lattice_spacing} origin 0 0 0
lattice fcc 4.1 origin 0 0 0
Lattice spacing in x,y,z = 4.1000000 4.1000000 4.1000000
region r1 block 0 8 0 8 0 8 units lattice side in
create_box 1 r1
Created orthogonal box = (0.0000000 0.0000000 0.0000000) to (32.800000 32.800000 32.800000)
  1 by 1 by 1 MPI processor grid
#if "$a == 1" then "create_box 1 region$a"
#if "$a > 1" then "delete_atoms group 1" #"change_box 1 boundary p p f units lattice" #"reset_timestep 0"
mass 1 26.98
create_atoms 1 region r1
Created 2048 atoms
  create_atoms CPU = 0.000 seconds
group 1 type 1
2048 atoms in group 1
pair_style kim Morse_Shifted_GirifalcoWeizer_1959HighCutoff_Al__MO_140175748626_004
pair_coeff * * Al
neighbor 2.5 bin
neigh_modify every 1 delay 1
timestep 0.001
dump 1 all atom 100 dump.Al_${lattice_spacing}
dump 1 all atom 100 dump.Al_4.1
thermo 100
thermo_style custom step temp press pe ke etotal
fix 1 all nvt temp 0.0001 0.0001 0.01
run 10000
Neighbor list info ...
  update every 1 steps, delay 1 steps, check yes
  max neighbors/atom: 2000, page size: 100000
  master list distance cutoff = 14.2567
  ghost atom cutoff = 14.2567
  binsize = 7.12835, bins = 5 5 5
  1 neighbor lists, perpetual/occasional/extra = 1 0 0
  (1) pair kim, perpetual
      attributes: full, newton off, cut 14.2567
      pair build: full/bin/atomonly
      stencil: full/bin/3d
      bin: standard
Per MPI rank memory allocation (min/avg/max) = 7.307 | 7.307 | 7.307 Mbytes
Step Temp Press PotEng KinEng TotEng 
       0            0    1584.0013   -4933.5354            0   -4933.5354 
     100 7.60825e-289    38.711126   -4940.5592 2.0131088e-289   -4940.5592 
     200            0   -1227.7663   -4945.7572            0   -4945.7572 
     300            0    -2286.334   -4949.6976            0   -4949.6976 
     400            0   -3185.9624   -4952.7516            0   -4952.7516 
     500            0   -3961.3009   -4955.1668            0   -4955.1668 
     600            0   -4637.4403   -4957.1119            0   -4957.1119 
     700            0   -5232.9562   -4958.7038            0   -4958.7038 
     800            0   -5761.8881   -4960.0255            0   -4960.0255 
     900            0   -6235.0529   -4961.1368            0   -4961.1368 
    1000            0   -6660.9317   -4962.0818            0   -4962.0818 
    1100            0   -7046.2799   -4962.8936            0   -4962.8936 
    1200            0   -7396.5559   -4963.5971            0   -4963.5971 
    1300            0   -7716.2269   -4964.2117            0   -4964.2117 
    1400            0   -8008.9912   -4964.7527            0   -4964.7527 
    1500            0   -8277.9421   -4965.2319            0   -4965.2319 
    1600            0   -8525.6912   -4965.6591            0   -4965.6591 
    1700            0   -8754.4618    -4966.042            0    -4966.042 
    1800            0   -8966.1617   -4966.3869            0   -4966.3869 
    1900            0   -9162.4384   -4966.6992            0   -4966.6992 
    2000            0   -9344.7247   -4966.9831            0   -4966.9831 
    2100            0   -9514.2732   -4967.2423            0   -4967.2423 
    2200            0    -9672.185   -4967.4799            0   -4967.4799 
    2300            0   -9819.4329   -4967.6985            0   -4967.6985 
    2400            0   -9956.8804   -4967.9003            0   -4967.9003 
    2500            0   -10085.297   -4968.0872            0   -4968.0872 
    2600            0    -10205.37   -4968.2609            0   -4968.2609 
    2700            0    -10317.72   -4968.4227            0   -4968.4227 
    2800            0   -10422.901   -4968.5739            0   -4968.5739 
    2900            0   -10521.419   -4968.7156            0   -4968.7156 
    3000            0   -10613.729   -4968.8487            0   -4968.8487 
    3100            0   -10700.247    -4968.974            0    -4968.974 
    3200            0   -10781.351   -4969.0923            0   -4969.0923 
    3300            0   -10857.386   -4969.2042            0   -4969.2042 
    3400            0   -10928.602   -4969.3102            0   -4969.3102 
    3500            0   -10995.425    -4969.411            0    -4969.411 
    3600            0   -11057.988   -4969.5069            0   -4969.5069 
    3700            0   -11116.671   -4969.5984            0   -4969.5984 
    3800            0   -11171.569   -4969.6857            0   -4969.6857 
    3900            0   -11223.024   -4969.7694            0   -4969.7694 
    4000            0   -11271.166   -4969.8495            0   -4969.8495 
    4100            0   -11316.107   -4969.9265            0   -4969.9265 
    4200            0   -11358.151   -4970.0005            0   -4970.0005 
    4300            0   -11397.322   -4970.0718            0   -4970.0718 
    4400            0   -11433.897   -4970.1406            0   -4970.1406 
    4500            0   -11467.947    -4970.207            0    -4970.207 
    4600            0   -11499.598   -4970.2712            0   -4970.2712 
    4700            0   -11528.904   -4970.3333            0   -4970.3333 
    4800            0   -11556.044   -4970.3936            0   -4970.3936 
    4900            0   -11581.056   -4970.4521            0   -4970.4521 
    5000            0   -11604.238   -4970.5089            0   -4970.5089 
    5100            0   -11625.483   -4970.5642            0   -4970.5642 
    5200            0   -11645.011    -4970.618            0    -4970.618 
    5300            0   -11662.768   -4970.6705            0   -4970.6705 
    5400            0   -11678.902   -4970.7216            0   -4970.7216 
    5500            0   -11693.551   -4970.7715            0   -4970.7715 
    5600            0   -11706.716   -4970.8203            0   -4970.8203 
    5700            0   -11718.463    -4970.868            0    -4970.868 
    5800            0   -11728.852   -4970.9147            0   -4970.9147 
    5900            0   -11737.877   -4970.9604            0   -4970.9604 
    6000            0   -11745.659   -4971.0053            0   -4971.0053 
    6100            0   -11752.317   -4971.0492            0   -4971.0492 
    6200            0   -11757.833   -4971.0923            0   -4971.0923 
    6300            0   -11762.255   -4971.1346            0   -4971.1346 
    6400            0   -11765.627   -4971.1762            0   -4971.1762 
    6500            0   -11767.992   -4971.2171            0   -4971.2171 
    6600            0   -11769.391   -4971.2573            0   -4971.2573 
    6700            0   -11769.861   -4971.2968            0   -4971.2968 
    6800            0    -11769.44   -4971.3358            0   -4971.3358 
    6900            0   -11768.163   -4971.3741            0   -4971.3741 
    7000            0   -11766.062   -4971.4119            0   -4971.4119 
    7100            0   -11763.171   -4971.4491            0   -4971.4491 
    7200            0   -11759.519   -4971.4858            0   -4971.4858 
    7300            0   -11755.135   -4971.5221            0   -4971.5221 
    7400            0   -11750.047   -4971.5578            0   -4971.5578 
    7500            0   -11744.282   -4971.5931            0   -4971.5931 
    7600            0   -11737.865   -4971.6279            0   -4971.6279 
    7700            0    -11730.82   -4971.6623            0   -4971.6623 
    7800            0   -11723.171   -4971.6963            0   -4971.6963 
    7900            0   -11714.939   -4971.7299            0   -4971.7299 
    8000            0   -11706.147   -4971.7631            0   -4971.7631 
    8100            0   -11696.814   -4971.7959            0   -4971.7959 
    8200            0    -11686.96   -4971.8284            0   -4971.8284 
    8300            0   -11676.604   -4971.8606            0   -4971.8606 
    8400            0   -11665.764   -4971.8923            0   -4971.8923 
    8500            0   -11654.458   -4971.9238            0   -4971.9238 
    8600            0   -11642.702    -4971.955            0    -4971.955 
    8700            0   -11630.511   -4971.9858            0   -4971.9858 
    8800            0   -11617.902   -4972.0163            0   -4972.0163 
    8900            0   -11604.889   -4972.0466            0   -4972.0466 
    9000            0   -11591.487   -4972.0765            0   -4972.0765 
    9100            0   -11577.709   -4972.1062            0   -4972.1062 
    9200            0   -11563.568   -4972.1357            0   -4972.1357 
    9300            0   -11549.076   -4972.1648            0   -4972.1648 
    9400            0   -11534.247   -4972.1937            0   -4972.1937 
    9500            0   -11519.093   -4972.2224            0   -4972.2224 
    9600            0   -11503.623   -4972.2508            0   -4972.2508 
    9700            0   -11487.849   -4972.2789            0   -4972.2789 
    9800            0   -11471.783   -4972.3069            0   -4972.3069 
    9900            0   -11455.433   -4972.3346            0   -4972.3346 
   10000            0    -11438.81   -4972.3621            0   -4972.3621 
Loop time of 84.5731 on 1 procs for 10000 steps with 2048 atoms

Performance: 10.216 ns/day, 2.349 hours/ns, 118.241 timesteps/s
99.8% CPU use with 1 MPI tasks x 1 OpenMP threads

MPI task timing breakdown:
Section |  min time  |  avg time  |  max time  |%varavg| %total
---------------------------------------------------------------
Pair    | 84.05      | 84.05      | 84.05      |   0.0 | 99.38
Neigh   | 0          | 0          | 0          |   0.0 |  0.00
Comm    | 0.0020257  | 0.0020257  | 0.0020257  |   0.0 |  0.00
Output  | 0.21722    | 0.21722    | 0.21722    |   0.0 |  0.26
Modify  | 0.2479     | 0.2479     | 0.2479     |   0.0 |  0.29
Other   |            | 0.0561     |            |       |  0.07

Nlocal:        2048.00 ave        2048 max        2048 min
Histogram: 1 0 0 0 0 0 0 0 0 0
Nghost:         0.00000 ave           0 max           0 min
Histogram: 1 0 0 0 0 0 0 0 0 0
Neighs:         0.00000 ave           0 max           0 min
Histogram: 1 0 0 0 0 0 0 0 0 0
FullNghs:      817064.0 ave      817064 max      817064 min
Histogram: 1 0 0 0 0 0 0 0 0 0

Total # of neighbors = 817064
Ave neighs/atom = 398.95703
Neighbor list builds = 0
Dangerous builds = 0
unfix 1
clear
OMP_NUM_THREADS environment is not set. Defaulting to 1 thread. (src/comm.cpp:94)
  using 1 OpenMP thread(s) per MPI task
variable lattice_spacing equal ${lattice_spacing}+0.05
variable lattice_spacing equal 4.1+0.05
next a
jump SELF loop1
variable a loop 10
print "Lattice_spacing is ${lattice_spacing}"
Lattice_spacing is 4.15

units metal
boundary f f f
atom_style atomic

lattice fcc ${lattice_spacing} origin 0 0 0
lattice fcc 4.15 origin 0 0 0
Lattice spacing in x,y,z = 4.1500000 4.1500000 4.1500000
region r1 block 0 8 0 8 0 8 units lattice side in
create_box 1 r1
Created orthogonal box = (0.0000000 0.0000000 0.0000000) to (33.200000 33.200000 33.200000)
  1 by 1 by 1 MPI processor grid
#if "$a == 1" then "create_box 1 region$a"
#if "$a > 1" then "delete_atoms group 1" #"change_box 1 boundary p p f units lattice" #"reset_timestep 0"
mass 1 26.98
create_atoms 1 region r1
Created 2048 atoms
  create_atoms CPU = 0.000 seconds
group 1 type 1
2048 atoms in group 1
pair_style kim Morse_Shifted_GirifalcoWeizer_1959HighCutoff_Al__MO_140175748626_004
pair_coeff * * Al
neighbor 2.5 bin
neigh_modify every 1 delay 1
timestep 0.001
dump 1 all atom 100 dump.Al_${lattice_spacing}
dump 1 all atom 100 dump.Al_4.15
thermo 100
thermo_style custom step temp press pe ke etotal
fix 1 all nvt temp 0.0001 0.0001 0.01
run 10000
Neighbor list info ...
  update every 1 steps, delay 1 steps, check yes
  max neighbors/atom: 2000, page size: 100000
  master list distance cutoff = 14.2567
  ghost atom cutoff = 14.2567
  binsize = 7.12835, bins = 5 5 5
  1 neighbor lists, perpetual/occasional/extra = 1 0 0
  (1) pair kim, perpetual
      attributes: full, newton off, cut 14.2567
      pair build: full/bin/atomonly
      stencil: full/bin/3d
      bin: standard
Per MPI rank memory allocation (min/avg/max) = 7.307 | 7.307 | 7.307 Mbytes
Step Temp Press PotEng KinEng TotEng 
       0            0    -19290.29   -4926.0203            0   -4926.0203 
     100 1.2507362e-204   -20313.517   -4930.9853 3.3093919e-205   -4930.9853 
     200            0   -21148.735   -4934.7371            0   -4934.7371 
     300            0   -21839.831   -4937.6307            0   -4937.6307 
     400            0   -22420.332   -4939.9061            0   -4939.9061 
     500            0   -22911.608   -4941.7286            0   -4941.7286 
     600            0   -23331.308   -4943.2135            0   -4943.2135 
     700            0   -23690.112   -4944.4429            0   -4944.4429 
     800            0   -24004.017   -4945.4757            0   -4945.4757 
     900            0   -24276.853   -4946.3551            0   -4946.3551 
    1000            0   -24515.782   -4947.1131            0   -4947.1131 
    1100            0    -24725.07   -4947.7739            0   -4947.7739 
    1200            0   -24908.717    -4948.356            0    -4948.356 
    1300            0   -25070.016   -4948.8736            0   -4948.8736 
    1400            0   -25211.699   -4949.3379            0   -4949.3379 
    1500            0   -25336.064   -4949.7577            0   -4949.7577 
    1600            0   -25445.052   -4950.1402            0   -4950.1402 
    1700            0   -25540.321   -4950.4911            0   -4950.4911 
    1800            0   -25623.683   -4950.8149            0   -4950.8149 
    1900            0    -25695.59   -4951.1156            0   -4951.1156 
    2000            0   -25757.634   -4951.3963            0   -4951.3963 
    2100            0   -25810.493   -4951.6596            0   -4951.6596 
    2200            0   -25855.121   -4951.9077            0   -4951.9077 
    2300            0   -25892.246   -4952.1425            0   -4952.1425 
    2400            0   -25922.514   -4952.3656            0   -4952.3656 
    2500            0   -25946.499   -4952.5783            0   -4952.5783 
    2600            0   -25964.715   -4952.7818            0   -4952.7818 
    2700            0   -25977.625   -4952.9771            0   -4952.9771 
    2800            0   -25985.642    -4953.165            0    -4953.165 
    2900            0   -25989.269   -4953.3462            0   -4953.3462 
    3000            0   -25988.589   -4953.5214            0   -4953.5214 
    3100            0   -25984.038   -4953.6913            0   -4953.6913 
    3200            0   -25975.896   -4953.8562            0   -4953.8562 
    3300            0   -25964.419   -4954.0166            0   -4954.0166 
    3400            0   -25949.842   -4954.1728            0   -4954.1728 
    3500            0   -25932.377   -4954.3254            0   -4954.3254 
    3600            0   -25912.221   -4954.4744            0   -4954.4744 
    3700            0   -25889.556   -4954.6203            0   -4954.6203 
    3800            0   -25864.547   -4954.7632            0   -4954.7632 
    3900            0   -25837.349   -4954.9034            0   -4954.9034 
    4000            0   -25808.231    -4955.041            0    -4955.041 
    4100            0   -25777.067   -4955.1762            0   -4955.1762 
    4200            0   -25744.109   -4955.3092            0   -4955.3092 
    4300            0     -25709.6   -4955.4402            0   -4955.4402 
    4400            0   -25673.513   -4955.5692            0   -4955.5692 
    4500            0   -25636.334   -4955.6963            0   -4955.6963 
    4600            0   -25597.378   -4955.8217            0   -4955.8217 
    4700            0   -25556.989   -4955.9455            0   -4955.9455 
[...]
      attributes: full, newton off, cut 14.2567
      pair build: full/bin/atomonly
      stencil: full/bin/3d
      bin: standard
Per MPI rank memory allocation (min/avg/max) = 7.307 | 7.307 | 7.307 Mbytes
Step Temp Press PotEng KinEng TotEng 
       0            0   -36577.454   -4902.4333            0   -4902.4333 
     100 5.3676805e-149   -37213.322   -4906.0363 1.4202642e-149   -4906.0363 
     200 5.5485977e-264   -37724.615   -4908.8482 1.4681341e-264   -4908.8482 
     300            0   -38139.038   -4911.0863            0   -4911.0863 
     400            0   -38476.768   -4912.9017            0   -4912.9017 
     500            0    -38752.88   -4914.4016            0   -4914.4016 
     600            0   -38978.807   -4915.6628            0   -4915.6628 
     700            0   -39163.339   -4916.7413            0   -4916.7413 
     800            0   -39313.335    -4917.678            0    -4917.678 
     900            0   -39434.216   -4918.5032            0   -4918.5032 
    1000            0   -39530.321   -4919.2398            0   -4919.2398 
    1100            0   -39605.165   -4919.9052            0   -4919.9052 
    1200            0   -39661.628   -4920.5128            0   -4920.5128 
    1300            0   -39702.094   -4921.0728            0   -4921.0728 
    1400            0   -39728.553   -4921.5935            0   -4921.5935 
    1500            0   -39742.683   -4922.0813            0   -4922.0813 
    1600            0   -39745.906   -4922.5413            0   -4922.5413 
    1700            0   -39739.442   -4922.9777            0   -4922.9777 
    1800            0   -39724.338   -4923.3938            0   -4923.3938 
    1900            0   -39701.503   -4923.7925            0   -4923.7925 
    2000            0   -39671.729   -4924.1761            0   -4924.1761 
    2100            0   -39635.706   -4924.5464            0   -4924.5464 
    2200            0   -39594.296    -4924.905            0    -4924.905 
    2300            0   -39547.534   -4925.2532            0   -4925.2532 
    2400            0    -39496.21   -4925.5923            0   -4925.5923 
    2500            0   -39440.625    -4925.923            0    -4925.923 
    2600            0   -39381.219   -4926.2464            0   -4926.2464 
    2700            0   -39318.396   -4926.5629            0   -4926.5629 
    2800            0   -39252.523   -4926.8734            0   -4926.8734 
    2900            0   -39183.626   -4927.1782            0   -4927.1782 
    3000            0   -39112.079   -4927.4778            0   -4927.4778 
    3100            0    -39038.42   -4927.7727            0   -4927.7727 
    3200            0   -38962.292   -4928.0632            0   -4928.0632 
    3300            0   -38884.068   -4928.3495            0   -4928.3495 
    3400            0   -38804.105    -4928.632            0    -4928.632 
    3500            0   -38722.372   -4928.9109            0   -4928.9109 
    3600            0   -38639.011   -4929.1863            0   -4929.1863 
    3700            0   -38554.278   -4929.4586            0   -4929.4586 
    3800            0   -38468.104   -4929.7277            0   -4929.7277 
    3900            0   -38381.102    -4929.994            0    -4929.994 
    4000            0   -38292.746   -4930.2575            0   -4930.2575 
    4100            0   -38203.569   -4930.5184            0   -4930.5184 
    4200            0   -38113.219   -4930.7767            0   -4930.7767 
    4300            0   -38021.965   -4931.0326            0   -4931.0326 
    4400            0    -37930.13   -4931.2861            0   -4931.2861 
    4500            0   -37837.658   -4931.5374            0   -4931.5374 
    4600            0   -37744.552   -4931.7865            0   -4931.7865 
    4700            0   -37650.932   -4932.0335            0   -4932.0335 
    4800            0   -37556.667   -4932.2784            0   -4932.2784 
    4900            0   -37461.932   -4932.5213            0   -4932.5213 
    5000            0   -37366.589   -4932.7623            0   -4932.7623 
    5100            0    -37270.93   -4933.0013            0   -4933.0013 
    5200            0   -37175.062   -4933.2386            0   -4933.2386 
    5300            0    -37078.71    -4933.474            0    -4933.474 
    5400            0   -36982.285   -4933.7077            0   -4933.7077 
    5500            0   -36885.447   -4933.9396            0   -4933.9396 
    5600            0   -36788.664   -4934.1698            0   -4934.1698 
    5700            0   -36691.717   -4934.3984            0   -4934.3984 
    5800            0   -36594.509   -4934.6254            0   -4934.6254 
    5900            0   -36497.315   -4934.8508            0   -4934.8508 
    6000            0   -36400.222   -4935.0746            0   -4935.0746 
    6100            0   -36302.879   -4935.2969            0   -4935.2969 
    6200            0   -36205.619   -4935.5177            0   -4935.5177 
    6300            0   -36108.086    -4935.737            0    -4935.737 
    6400            0   -36010.549   -4935.9548            0   -4935.9548 
    6500            0   -35913.027   -4936.1712            0   -4936.1712 
    6600            0   -35815.662   -4936.3861            0   -4936.3861 
    6700            0   -35718.468   -4936.5997            0   -4936.5997 
    6800            0   -35621.086   -4936.8119            0   -4936.8119 
    6900            0    -35523.78   -4937.0227            0   -4937.0227 
    7000            0   -35426.562   -4937.2321            0   -4937.2321 
    7100            0   -35329.571   -4937.4403            0   -4937.4403 
    7200            0   -35232.692   -4937.6471            0   -4937.6471 
    7300            0   -35135.937   -4937.8526            0   -4937.8526 
    7400            0    -35039.44   -4938.0569            0   -4938.0569 
    7500            0   -34942.835   -4938.2598            0   -4938.2598 
    7600            0   -34846.508   -4938.4616            0   -4938.4616 
    7700            0   -34750.465   -4938.6621            0   -4938.6621 
    7800            0   -34654.589   -4938.8613            0   -4938.8613 
    7900            0   -34559.012   -4939.0594            0   -4939.0594 
    8000            0   -34463.368   -4939.2563            0   -4939.2563 
    8100            0   -34367.912   -4939.4519            0   -4939.4519 
    8200            0   -34272.402   -4939.6464            0   -4939.6464 
    8300            0   -34177.529   -4939.8398            0   -4939.8398 
    8400            0   -34082.487    -4940.032            0    -4940.032 
    8500            0   -33987.594    -4940.223            0    -4940.223 
    8600            0    -33893.23    -4940.413            0    -4940.413 
    8700            0   -33799.149   -4940.6018            0   -4940.6018 
    8800            0    -33705.23   -4940.7895            0   -4940.7895 
    8900            0   -33611.227   -4940.9761            0   -4940.9761 
    9000            0   -33517.581   -4941.1616            0   -4941.1616 
    9100            0   -33424.296    -4941.346            0    -4941.346 
    9200            0   -33331.186   -4941.5294            0   -4941.5294 
    9300            0   -33238.444   -4941.7117            0   -4941.7117 
    9400            0   -33145.945   -4941.8929            0   -4941.8929 
    9500            0    -33053.63   -4942.0732            0   -4942.0732 
    9600            0   -32961.501   -4942.2524            0   -4942.2524 
    9700            0   -32869.937   -4942.4305            0   -4942.4305 
    9800            0   -32778.438   -4942.6077            0   -4942.6077 
    9900            0   -32686.943   -4942.7838            0   -4942.7838 
   10000            0   -32596.018    -4942.959            0    -4942.959 
Loop time of 82.203 on 1 procs for 10000 steps with 2048 atoms

Performance: 10.511 ns/day, 2.283 hours/ns, 121.650 timesteps/s
99.9% CPU use with 1 MPI tasks x 1 OpenMP threads

MPI task timing breakdown:
Section |  min time  |  avg time  |  max time  |%varavg| %total
---------------------------------------------------------------
Pair    | 81.707     | 81.707     | 81.707     |   0.0 | 99.40
Neigh   | 0          | 0          | 0          |   0.0 |  0.00
Comm    | 0.0018727  | 0.0018727  | 0.0018727  |   0.0 |  0.00
Output  | 0.17031    | 0.17031    | 0.17031    |   0.0 |  0.21
Modify  | 0.26896    | 0.26896    | 0.26896    |   0.0 |  0.33
Other   |            | 0.05529    |            |       |  0.07

Nlocal:        2048.00 ave        2048 max        2048 min
Histogram: 1 0 0 0 0 0 0 0 0 0
Nghost:         0.00000 ave           0 max           0 min
Histogram: 1 0 0 0 0 0 0 0 0 0
Neighs:         0.00000 ave           0 max           0 min
Histogram: 1 0 0 0 0 0 0 0 0 0
FullNghs:      810152.0 ave      810152 max      810152 min
Histogram: 1 0 0 0 0 0 0 0 0 0

Total # of neighbors = 810152
Ave neighs/atom = 395.58203
Neighbor list builds = 0
Dangerous builds = 0
unfix 1
clear
OMP_NUM_THREADS environment is not set. Defaulting to 1 thread. (src/comm.cpp:94)
  using 1 OpenMP thread(s) per MPI task
variable lattice_spacing equal ${lattice_spacing}+0.05
variable lattice_spacing equal 4.2+0.05
next a
jump SELF loop1
variable a loop 10
print "Lattice_spacing is ${lattice_spacing}"
Lattice_spacing is 4.25

units metal
boundary f f f
atom_style atomic

lattice fcc ${lattice_spacing} origin 0 0 0
lattice fcc 4.25 origin 0 0 0
Lattice spacing in x,y,z = 4.2500000 4.2500000 4.2500000
region r1 block 0 8 0 8 0 8 units lattice side in
create_box 1 r1
Created orthogonal box = (0.0000000 0.0000000 0.0000000) to (34.000000 34.000000 34.000000)
  1 by 1 by 1 MPI processor grid
#if "$a == 1" then "create_box 1 region$a"
#if "$a > 1" then "delete_atoms group 1" #"change_box 1 boundary p p f units lattice" #"reset_timestep 0"
mass 1 26.98
create_atoms 1 region r1
Created 2048 atoms
  create_atoms CPU = 0.000 seconds
group 1 type 1
2048 atoms in group 1
pair_style kim Morse_Shifted_GirifalcoWeizer_1959HighCutoff_Al__MO_140175748626_004
pair_coeff * * Al
neighbor 2.5 bin
neigh_modify every 1 delay 1
timestep 0.001
dump 1 all atom 100 dump.Al_${lattice_spacing}
dump 1 all atom 100 dump.Al_4.25
thermo 100
thermo_style custom step temp press pe ke etotal
fix 1 all nvt temp 0.0001 0.0001 0.01
run 10000
Neighbor list info ...
  update every 1 steps, delay 1 steps, check yes
  max neighbors/atom: 2000, page size: 100000
  master list distance cutoff = 14.2567
  ghost atom cutoff = 14.2567
  binsize = 7.12835, bins = 5 5 5
  1 neighbor lists, perpetual/occasional/extra = 1 0 0
  (1) pair kim, perpetual
      attributes: full, newton off, cut 14.2567
      pair build: full/bin/atomonly
      stencil: full/bin/3d
      bin: standard
Per MPI rank memory allocation (min/avg/max) = 6.926 | 6.926 | 6.926 Mbytes
Step Temp Press PotEng KinEng TotEng 
       0            0   -50829.536   -4864.8099            0   -4864.8099 
     100 4.8903926e-115   -51182.368   -4867.5797 1.293976e-115   -4867.5797 
     200 1.5860712e-207   -51454.295   -4869.8433 4.1966732e-208   -4869.8433 
     300 1.3507605e-284   -51662.189   -4871.7311 3.5740517e-285   -4871.7311 
     400            0   -51818.535   -4873.3353            0   -4873.3353 
     500            0   -51932.913   -4874.7233            0   -4874.7233 
     600            0   -52012.753   -4875.9447            0   -4875.9447 
     700            0   -52063.885   -4877.0365            0   -4877.0365 
     800            0   -52090.935   -4878.0263            0   -4878.0263 
     900            0   -52097.611   -4878.9348            0   -4878.9348 
    1000            0   -52086.918    -4879.778            0    -4879.778 
    1100            0   -52061.317   -4880.5681            0   -4880.5681 
    1200            0   -52022.839   -4881.3145            0   -4881.3145 
    1300            0   -51973.177   -4882.0247            0   -4882.0247 
    1400            0   -51913.754   -4882.7044            0   -4882.7044 
    1500            0   -51845.775   -4883.3583            0   -4883.3583 
    1600            0   -51770.265   -4883.9902            0   -4883.9902 
    1700            0   -51688.107    -4884.603            0    -4884.603 
    1800            0   -51600.061   -4885.1992            0   -4885.1992 
    1900            0   -51506.787   -4885.7809            0   -4885.7809 
    2000            0   -51408.861   -4886.3495            0   -4886.3495 
    2100            0   -51306.787   -4886.9067            0   -4886.9067 
    2200            0    -51201.01   -4887.4534            0   -4887.4534 
    2300            0   -51091.923   -4887.9906            0   -4887.9906 
    2400            0   -50979.873   -4888.5193            0   -4888.5193 
    2500            0    -50865.17     -4889.04            0     -4889.04 
    2600            0   -50748.091   -4889.5533            0   -4889.5533 
    2700            0   -50628.883   -4890.0599            0   -4890.0599 
    2800            0    -50507.77     -4890.56            0     -4890.56 
    2900            0    -50384.95   -4891.0542            0   -4891.0542 
    3000            0   -50260.605   -4891.5427            0   -4891.5427 
    3100            0   -50134.897   -4892.0258            0   -4892.0258 
    3200            0   -50007.976   -4892.5038            0   -4892.5038 
    3300            0   -49879.975    -4892.977            0    -4892.977 
    3400            0   -49751.017   -4893.4455            0   -4893.4455 
    3500            0   -49621.212   -4893.9094            0   -4893.9094 
    3600            0   -49490.663   -4894.3691            0   -4894.3691 
    3700            0   -49359.463   -4894.8245            0   -4894.8245 
    3800            0   -49227.696   -4895.2759            0   -4895.2759 
    3900            0   -49095.441   -4895.7234            0   -4895.7234 
    4000            0   -48962.769    -4896.167            0    -4896.167 
    4100            0   -48829.746   -4896.6069            0   -4896.6069 
    4200            0   -48696.432   -4897.0432            0   -4897.0432 
    4300            0   -48562.883   -4897.4759            0   -4897.4759 
    4400            0    -48429.15   -4897.9052            0   -4897.9052 
    4500            0   -48295.281   -4898.3311            0   -4898.3311 
    4600            0   -48161.319   -4898.7537            0   -4898.7537 
    4700            0   -48027.305    -4899.173            0    -4899.173 
    4800            0   -47893.275   -4899.5891            0   -4899.5891 
    4900            0   -47759.265   -4900.0021            0   -4900.0021 
    5000            0   -47625.305    -4900.412            0    -4900.412 
    5100            0   -47491.427   -4900.8189            0   -4900.8189 
    5200            0   -47357.656   -4901.2228            0   -4901.2228 
    5300            0   -47224.018   -4901.6237            0   -4901.6237 
    5400            0   -47090.537   -4902.0218            0   -4902.0218 
    5500            0   -46957.235    -4902.417            0    -4902.417 
    5600            0    -46824.13   -4902.8094            0   -4902.8094 
    5700            0   -46691.244    -4903.199            0    -4903.199 
    5800            0   -46558.591   -4903.5859            0   -4903.5859 
    5900            0    -46426.19   -4903.9702            0   -4903.9702 
    6000            0   -46294.053   -4904.3517            0   -4904.3517 
    6100            0   -46162.197   -4904.7307            0   -4904.7307 
    6200            0   -46030.632    -4905.107            0    -4905.107 
    6300            0    -45899.37   -4905.4808            0   -4905.4808 
    6400            0   -45768.545   -4905.8521            0   -4905.8521 
    6500            0   -45637.923   -4906.2209            0   -4906.2209 
    6600            0   -45507.697   -4906.5872            0   -4906.5872 
    6700            0   -45377.752   -4906.9511            0   -4906.9511 
    6800            0   -45248.159   -4907.3126            0   -4907.3126 
    6900            0   -45118.923   -4907.6717            0   -4907.6717 
    7000            0   -44990.113   -4908.0284            0   -4908.0284 
    7100            0   -44861.614   -4908.3828            0   -4908.3828 
    7200            0   -44733.492   -4908.7349            0   -4908.7349 
    7300            0   -44605.752   -4909.0848            0   -4909.0848 
    7400            0   -44478.399   -4909.4324            0   -4909.4324 
    7500            0   -44351.438   -4909.7778            0   -4909.7778 
    7600            0   -44224.871   -4910.1209            0   -4910.1209 
    7700            0   -44098.704   -4910.4619            0   -4910.4619 
    7800            0       -43973   -4910.8007            0   -4910.8007 
    7900            0   -43847.641   -4911.1374            0   -4911.1374 
    8000            0    -43722.81    -4911.472            0    -4911.472 
    8100            0    -43598.39   -4911.8045            0   -4911.8045 
    8200            0   -43474.261    -4912.135            0    -4912.135 
    8300            0   -43350.547   -4912.4634            0   -4912.4634 
    8400            0    -43227.37   -4912.7897            0   -4912.7897 
    8500            0   -43104.489   -4913.1141            0   -4913.1141 
    8600            0   -42982.087   -4913.4364            0   -4913.4364 
    8700            0   -42860.045   -4913.7568            0   -4913.7568 
    8800            0   -42738.422   -4914.0753            0   -4914.0753 
    8900            0   -42617.401   -4914.3918            0   -4914.3918 
    9000            0   -42496.621   -4914.7064            0   -4914.7064 
    9100            0   -42376.323   -4915.0191            0   -4915.0191 
    9200            0   -42256.446     -4915.33            0     -4915.33 
    9300            0   -42136.931   -4915.6389            0   -4915.6389 
    9400            0   -42017.838   -4915.9461            0   -4915.9461 
    9500            0   -41899.167   -4916.2514            0   -4916.2514 
    9600            0   -41780.917   -4916.5549            0   -4916.5549 
    9700            0   -41663.268   -4916.8566            0   -4916.8566 
    9800            0    -41545.92   -4917.1566            0   -4917.1566 
    9900            0    -41428.93   -4917.4547            0   -4917.4547 
   10000            0    -41312.54   -4917.7512            0   -4917.7512 
Loop time of 81.3193 on 1 procs for 10000 steps with 2048 atoms

Performance: 10.625 ns/day, 2.259 hours/ns, 122.972 timesteps/s
100.0% CPU use with 1 MPI tasks x 1 OpenMP threads

MPI task timing breakdown:
Section |  min time  |  avg time  |  max time  |%varavg| %total
---------------------------------------------------------------
Pair    | 80.83      | 80.83      | 80.83      |   0.0 | 99.40
Neigh   | 0          | 0          | 0          |   0.0 |  0.00
Comm    | 0.0017505  | 0.0017505  | 0.0017505  |   0.0 |  0.00
Output  | 0.1618     | 0.1618     | 0.1618     |   0.0 |  0.20
Modify  | 0.27051    | 0.27051    | 0.27051    |   0.0 |  0.33
Other   |            | 0.05484    |            |       |  0.07

Nlocal:        2048.00 ave        2048 max        2048 min
Histogram: 1 0 0 0 0 0 0 0 0 0
Nghost:         0.00000 ave           0 max           0 min
Histogram: 1 0 0 0 0 0 0 0 0 0
Neighs:         0.00000 ave           0 max           0 min
Histogram: 1 0 0 0 0 0 0 0 0 0
FullNghs:      763352.0 ave      763352 max      763352 min
Histogram: 1 0 0 0 0 0 0 0 0 0

Total # of neighbors = 763352
Ave neighs/atom = 372.73047
Neighbor list builds = 0
Dangerous builds = 0
unfix 1
clear
OMP_NUM_THREADS environment is not set. Defaulting to 1 thread. (src/comm.cpp:94)
  using 1 OpenMP thread(s) per MPI task
variable lattice_spacing equal ${lattice_spacing}+0.05
variable lattice_spacing equal 4.25+0.05
next a
jump SELF loop1
variable a delete
print "done..."
done...
Total wall time: 0:15:05
