LAMMPS (24 Dec 2020)
OMP_NUM_THREADS environment is not set. Defaulting to 1 thread. (src/comm.cpp:94)
  using 1 OpenMP thread(s) per MPI task
variable lattice_spacing equal 3.80

label loop1
variable a loop 10
print "Lattice_spacing is ${lattice_spacing}"
Lattice_spacing is 3.8

units metal
boundary f f f
atom_style atomic

lattice fcc ${lattice_spacing} origin 0 0 0
lattice fcc 3.8 origin 0 0 0
Lattice spacing in x,y,z = 3.8000000 3.8000000 3.8000000
region r1 block 0 8 0 8 0 8 units lattice side in
create_box 1 r1
Created orthogonal box = (0.0000000 0.0000000 0.0000000) to (30.400000 30.400000 30.400000)
  1 by 1 by 1 MPI processor grid
#if "$a == 1" then "create_box 1 region$a"
#if "$a > 1" then "delete_atoms group 1" #"change_box 1 boundary p p f units lattice" #"reset_timestep 0"
mass 1 26.98
create_atoms 1 region r1
Created 2048 atoms
  create_atoms CPU = 0.001 seconds
group 1 type 1
2048 atoms in group 1
pair_style kim Morse_Shifted_GirifalcoWeizer_1959LowCutoff_Al__MO_411898953661_004
pair_coeff * * Al
neighbor 2.5 bin
neigh_modify every 1 delay 1
timestep 0.001
dump 1 all atom 100 dump.Al_${lattice_spacing}
dump 1 all atom 100 dump.Al_3.8
thermo 100
thermo_style custom step temp press pe ke etotal
fix 1 all nvt temp 0.0001 0.0001 0.01
run 10000
Neighbor list info ...
  update every 1 steps, delay 1 steps, check yes
  max neighbors/atom: 2000, page size: 100000
  master list distance cutoff = 10.30032
  ghost atom cutoff = 10.30032
  binsize = 5.15016, bins = 6 6 6
  1 neighbor lists, perpetual/occasional/extra = 1 0 0
  (1) pair kim, perpetual
      attributes: full, newton off, cut 10.30032
      pair build: full/bin/atomonly
      stencil: full/bin/3d
      bin: standard
Per MPI rank memory allocation (min/avg/max) = 5.782 | 5.782 | 5.782 Mbytes
Step Temp Press PotEng KinEng TotEng 
       0            0     258624.6   -4110.7637            0   -4110.7637 
     100            0    247929.75   -4161.5565            0   -4161.5565 
     200            0    239519.29   -4197.0711            0   -4197.0711 
     300            0    232561.54   -4223.8146            0   -4223.8146 
     400            0    226598.07   -4245.0847            0   -4245.0847 
     500            0    221355.93   -4262.6916            0   -4262.6916 
     600            0    216661.43   -4277.7032            0   -4277.7032 
     700            0    212397.78   -4290.7902            0   -4290.7902 
     800            0    208482.79    -4302.397            0    -4302.397 
     900            0    205120.91   -4312.8459            0   -4312.8459 
    1000            0    201729.78   -4322.3815            0   -4322.3815 
    1100            0    198542.83   -4331.1239            0   -4331.1239 
    1200            0    195604.38   -4339.2008            0   -4339.2008 
    1300            0    192756.56   -4346.7152            0   -4346.7152 
    1400            0    190061.28    -4353.737            0    -4353.737 
    1500            0       187481   -4360.3286            0   -4360.3286 
    1600            0    185014.36   -4366.5407            0   -4366.5407 
    1700            0    182650.56   -4372.4156            0   -4372.4156 
    1800            0    180380.35   -4377.9889            0   -4377.9889 
    1900            0    178195.76   -4383.2907            0   -4383.2907 
    2000            0    176089.85   -4388.3466            0   -4388.3466 
    2100            0    174056.55   -4393.1787            0   -4393.1787 
    2200            0    172090.48   -4397.8063            0   -4397.8063 
    2300            0    170186.91    -4402.246            0    -4402.246 
    2400            0     168341.6   -4406.5126            0   -4406.5126 
    2500            0    166550.76    -4410.619            0    -4410.619 
    2600            0    164810.99   -4414.5767            0   -4414.5767 
    2700            0     163119.2   -4418.3961            0   -4418.3961 
    2800            0    161472.61   -4422.0864            0   -4422.0864 
    2900            0    159874.18    -4425.656            0    -4425.656 
    3000            0    158310.49   -4429.1123            0   -4429.1123 
    3100            0    156785.04   -4432.4621            0   -4432.4621 
    3200            0    155295.87   -4435.7114            0   -4435.7114 
    3300            0    153841.18    -4438.866            0    -4438.866 
    3400            0    152419.33    -4441.931            0    -4441.931 
    3500            0    151028.78   -4444.9111            0   -4444.9111 
    3600            0    149668.12   -4447.8107            0   -4447.8107 
    3700            0    148336.02   -4450.6338            0   -4450.6338 
    3800            0    147031.26   -4453.3842            0   -4453.3842 
    3900            0     145752.7   -4456.0651            0   -4456.0651 
    4000            0    144499.25     -4458.68            0     -4458.68 
    4100            0    143269.93   -4461.2316            0   -4461.2316 
    4200            0    142136.26   -4463.7237            0   -4463.7237 
    4300            0    140968.05   -4466.1628            0   -4466.1628 
    4400            0    139848.83   -4468.5479            0   -4468.5479 
    4500            0    138705.35   -4470.8805            0   -4470.8805 
    4600            0    137587.31   -4473.1619            0   -4473.1619 
    4700            0    136482.89    -4475.394            0    -4475.394 
    4800            0    135419.34    -4477.579            0    -4477.579 
    4900            0    134384.26   -4479.7204            0   -4479.7204 
    5000            0    133343.74   -4481.8185            0   -4481.8185 
    5100            0    132330.48   -4483.8751            0   -4483.8751 
    5200            0    131344.16   -4485.8917            0   -4485.8917 
    5300            0    130361.68   -4487.8697            0   -4487.8697 
    5400            0     129427.3   -4489.8104            0   -4489.8104 
    5500            0    128450.46    -4491.716            0    -4491.716 
    5600            0    127510.65   -4493.5856            0   -4493.5856 
    5700            0    126595.96   -4495.4218            0   -4495.4218 
    5800            0    125694.94   -4497.2249            0   -4497.2249 
    5900            0    124784.59   -4498.9963            0   -4498.9963 
    6000            0    123876.02   -4500.7359            0   -4500.7359 
    6100            0    122985.78   -4502.4446            0   -4502.4446 
    6200            0    122102.36   -4504.1232            0   -4504.1232 
    6300            0    121242.14   -4505.7729            0   -4505.7729 
    6400            0    120393.68   -4507.3942            0   -4507.3942 
    6500            0    119545.45   -4508.9883            0   -4508.9883 
    6600            0    118708.42   -4510.5554            0   -4510.5554 
    6700            0    117893.35   -4512.0966            0   -4512.0966 
    6800            0    117077.58   -4513.6125            0   -4513.6125 
    6900            0    116272.23   -4515.1036            0   -4515.1036 
    7000            0    115477.06   -4516.5706            0   -4516.5706 
    7100            0    114691.84    -4518.014            0    -4518.014 
    7200            0    113916.34   -4519.4346            0   -4519.4346 
    7300            0    113150.34   -4520.8328            0   -4520.8328 
    7400            0    112393.62   -4522.2092            0   -4522.2092 
    7500            0    111645.98   -4523.5644            0   -4523.5644 
    7600            0    110907.23   -4524.8988            0   -4524.8988 
    7700            0    110177.17    -4526.213            0    -4526.213 
    7800            0    109455.61   -4527.5074            0   -4527.5074 
    7900            0    108742.39   -4528.7825            0   -4528.7825 
    8000            0    108037.33   -4530.0386            0   -4530.0386 
    8100            0    107340.26   -4531.2763            0   -4531.2763 
    8200            0    106678.92   -4532.4963            0   -4532.4963 
    8300            0    106002.75   -4533.6992            0   -4533.6992 
    8400            0    105350.79   -4534.8853            0   -4534.8853 
    8500            0    104683.79   -4536.0548            0   -4536.0548 
    8600            0    104029.59   -4537.2077            0   -4537.2077 
    8700            0    103388.05   -4538.3446            0   -4538.3446 
    8800            0    102775.42   -4539.4663            0   -4539.4663 
    8900            0    102135.82   -4540.5729            0   -4540.5729 
    9000            0    101514.11   -4541.6643            0   -4541.6643 
    9100            0    100887.77   -4542.7409            0   -4542.7409 
    9200            0    100279.03   -4543.8029            0   -4543.8029 
    9300            0    99665.249   -4544.8508            0   -4544.8508 
    9400            0    99079.832   -4545.8848            0   -4545.8848 
    9500            0    98500.263   -4546.9056            0   -4546.9056 
    9600            0    97920.999   -4547.9132            0   -4547.9132 
    9700            0    97352.975   -4548.9078            0   -4548.9078 
    9800            0    96768.175   -4549.8896            0   -4549.8896 
    9900            0    96200.288   -4550.8586            0   -4550.8586 
   10000            0    95648.876   -4551.8155            0   -4551.8155 
Loop time of 40.8239 on 1 procs for 10000 steps with 2048 atoms

Performance: 21.164 ns/day, 1.134 hours/ns, 244.954 timesteps/s
99.8% CPU use with 1 MPI tasks x 1 OpenMP threads

MPI task timing breakdown:
Section |  min time  |  avg time  |  max time  |%varavg| %total
---------------------------------------------------------------
Pair    | 40.341     | 40.341     | 40.341     |   0.0 | 98.82
Neigh   | 0          | 0          | 0          |   0.0 |  0.00
Comm    | 0.0021848  | 0.0021848  | 0.0021848  |   0.0 |  0.01
Output  | 0.16019    | 0.16019    | 0.16019    |   0.0 |  0.39
Modify  | 0.26036    | 0.26036    | 0.26036    |   0.0 |  0.64
Other   |            | 0.06047    |            |       |  0.15

Nlocal:        2048.00 ave        2048 max        2048 min
Histogram: 1 0 0 0 0 0 0 0 0 0
Nghost:         0.00000 ave           0 max           0 min
Histogram: 1 0 0 0 0 0 0 0 0 0
Neighs:         0.00000 ave           0 max           0 min
Histogram: 1 0 0 0 0 0 0 0 0 0
FullNghs:      437456.0 ave      437456 max      437456 min
Histogram: 1 0 0 0 0 0 0 0 0 0

Total # of neighbors = 437456
Ave neighs/atom = 213.60156
Neighbor list builds = 0
Dangerous builds = 0
unfix 1
clear
OMP_NUM_THREADS environment is not set. Defaulting to 1 thread. (src/comm.cpp:94)
  using 1 OpenMP thread(s) per MPI task
variable lattice_spacing equal ${lattice_spacing}+0.05
variable lattice_spacing equal 3.8+0.05
next a
jump SELF loop1
variable a loop 10
print "Lattice_spacing is ${lattice_spacing}"
Lattice_spacing is 3.85

units metal
boundary f f f
atom_style atomic

lattice fcc ${lattice_spacing} origin 0 0 0
lattice fcc 3.85 origin 0 0 0
Lattice spacing in x,y,z = 3.8500000 3.8500000 3.8500000
region r1 block 0 8 0 8 0 8 units lattice side in
create_box 1 r1
Created orthogonal box = (0.0000000 0.0000000 0.0000000) to (30.800000 30.800000 30.800000)
  1 by 1 by 1 MPI processor grid
#if "$a == 1" then "create_box 1 region$a"
#if "$a > 1" then "delete_atoms group 1" #"change_box 1 boundary p p f units lattice" #"reset_timestep 0"
mass 1 26.98
create_atoms 1 region r1
Created 2048 atoms
  create_atoms CPU = 0.000 seconds
group 1 type 1
2048 atoms in group 1
pair_style kim Morse_Shifted_GirifalcoWeizer_1959LowCutoff_Al__MO_411898953661_004
pair_coeff * * Al
neighbor 2.5 bin
neigh_modify every 1 delay 1
timestep 0.001
dump 1 all atom 100 dump.Al_${lattice_spacing}
dump 1 all atom 100 dump.Al_3.85
thermo 100
thermo_style custom step temp press pe ke etotal
fix 1 all nvt temp 0.0001 0.0001 0.01
run 10000
Neighbor list info ...
  update every 1 steps, delay 1 steps, check yes
  max neighbors/atom: 2000, page size: 100000
  master list distance cutoff = 10.30032
  ghost atom cutoff = 10.30032
  binsize = 5.15016, bins = 6 6 6
  1 neighbor lists, perpetual/occasional/extra = 1 0 0
  (1) pair kim, perpetual
      attributes: full, newton off, cut 10.30032
      pair build: full/bin/atomonly
      stencil: full/bin/3d
      bin: standard
Per MPI rank memory allocation (min/avg/max) = 5.782 | 5.782 | 5.782 Mbytes
Step Temp Press PotEng KinEng TotEng 
       0            0    198536.85   -4270.4282            0   -4270.4282 
     100            0    190459.54   -4308.1711            0   -4308.1711 
     200            0    184033.92   -4334.8274            0   -4334.8274 
     300            0     178689.6   -4354.9071            0   -4354.9071 
     400            0    174115.17    -4370.804            0    -4370.804 
     500            0    170313.46   -4383.9237            0   -4383.9237 
     600            0    166759.49   -4395.0464            0   -4395.0464 
     700            0    163464.55    -4404.678            0    -4404.678 
     800            0    160442.19   -4413.1598            0   -4413.1598 
     900            0    157645.78   -4420.7341            0   -4420.7341 
    1000            0    155040.07   -4427.5752            0   -4427.5752 
    1100            0    152603.06   -4433.8124            0   -4433.8124 
    1200            0    150302.26    -4439.544            0    -4439.544 
    1300            0     148125.7   -4444.8456            0   -4444.8456 
    1400            0    146059.11   -4449.7776            0   -4449.7776 
    1500            0    144090.63   -4454.3884            0   -4454.3884 
    1600            0    142210.33   -4458.7173            0   -4458.7173 
    1700            0    140409.77    -4462.797            0    -4462.797 
    1800            0    138681.72   -4466.6548            0   -4466.6548 
    1900            0    137019.96   -4470.3134            0   -4470.3134 
    2000            0    135419.06   -4473.7926            0   -4473.7926 
    2100            0    133874.27    -4477.109            0    -4477.109 
    2200            0    132381.41   -4480.2772            0   -4480.2772 
    2300            0    130936.77   -4483.3097            0   -4483.3097 
    2400            0    129537.05   -4486.2176            0   -4486.2176 
    2500            0    128179.29   -4489.0107            0   -4489.0107 
    2600            0    126860.84   -4491.6974            0   -4491.6974 
    2700            0    125579.28   -4494.2856            0   -4494.2856 
    2800            0    124332.47   -4496.7819            0   -4496.7819 
    2900            0    123118.41   -4499.1927            0   -4499.1927 
    3000            0     121935.3   -4501.5233            0   -4501.5233 
    3100            0    120899.24   -4503.7812            0   -4503.7812 
    3200            0    119787.66   -4505.9747            0   -4505.9747 
    3300            0    118707.65   -4508.1019            0   -4508.1019 
    3400            0    117662.97   -4510.1683            0   -4510.1683 
    3500            0    116609.85   -4512.1754            0   -4512.1754 
    3600            0    115579.51   -4514.1259            0   -4514.1259 
    3700            0    114576.31    -4516.023            0    -4516.023 
    3800            0    113588.55   -4517.8693            0   -4517.8693 
    3900            0    112663.53   -4519.6684            0   -4519.6684 
    4000            0    111725.17   -4521.4224            0   -4521.4224 
    4100            0     110826.5   -4523.1334            0   -4523.1334 
    4200            0    109934.49   -4524.8036            0   -4524.8036 
    4300            0    109037.84   -4526.4342            0   -4526.4342 
    4400            0    108157.55   -4528.0264            0   -4528.0264 
    4500            0       107293   -4529.5817            0   -4529.5817 
    4600            0    106454.15    -4531.102            0    -4531.102 
    4700            0    105640.02   -4532.5896            0   -4532.5896 
    4800            0    104860.71    -4534.046            0    -4534.046 
    4900            0    104051.49    -4535.472            0    -4535.472 
    5000            0     103276.7   -4536.8683            0   -4536.8683 
    5100            0    102545.72   -4538.2373            0   -4538.2373 
    5200            0    101772.58   -4539.5795            0   -4539.5795 
    5300            0     101022.4   -4540.8943            0   -4540.8943 
    5400            0    100273.02   -4542.1833            0   -4542.1833 
    5500            0     99545.88   -4543.4469            0   -4543.4469 
    5600            0    98819.127   -4544.6861            0   -4544.6861 
    5700            0    98113.706   -4545.9018            0   -4545.9018 
    5800            0    97407.982   -4547.0946            0   -4547.0946 
    5900            0    96712.497   -4548.2652            0   -4548.2652 
    6000            0    96026.962   -4549.4142            0   -4549.4142 
    6100            0    95351.099   -4550.5424            0   -4550.5424 
    6200            0    94706.125   -4551.6505            0   -4551.6505 
    6300            0    94075.478   -4552.7401            0   -4552.7401 
    6400            0     93437.56   -4553.8112            0   -4553.8112 
    6500            0    92818.932   -4554.8645            0   -4554.8645 
    6600            0    92192.585   -4555.9002            0   -4555.9002 
    6700            0    91574.456   -4556.9185            0   -4556.9185 
    6800            0    90958.964   -4557.9199            0   -4557.9199 
    6900            0    90372.727   -4558.9052            0   -4558.9052 
    7000            0    89783.308   -4559.8748            0   -4559.8748 
    7100            0    89190.592   -4560.8289            0   -4560.8289 
    7200            0    88605.159   -4561.7677            0   -4561.7677 
    7300            0    88037.548   -4562.6918            0   -4562.6918 
    7400            0    87466.135   -4563.6016            0   -4563.6016 
    7500            0    86901.519   -4564.4972            0   -4564.4972 
    7600            0    86343.549   -4565.3791            0   -4565.3791 
    7700            0    85824.209    -4566.248            0    -4566.248 
    7800            0    85289.454   -4567.1044            0   -4567.1044 
    7900            0    84750.178    -4567.948            0    -4567.948 
    8000            0    84227.695   -4568.7792            0   -4568.7792 
    8100            0    83727.032   -4569.5987            0   -4569.5987 
    8200            0    83226.566   -4570.4068            0   -4570.4068 
    8300            0    82721.017   -4571.2037            0   -4571.2037 
    8400            0    82231.823   -4571.9894            0   -4571.9894 
    8500            0    81747.938   -4572.7645            0   -4572.7645 
    8600            0    81247.842   -4573.5289            0   -4573.5289 
    8700            0    80753.074   -4574.2825            0   -4574.2825 
    8800            0    80263.528   -4575.0257            0   -4575.0257 
    8900            0     79800.47   -4575.7588            0   -4575.7588 
    9000            0    79320.772   -4576.4821            0   -4576.4821 
    9100            0    78846.021   -4577.1956            0   -4577.1956 
    9200            0    78402.606   -4577.8998            0   -4577.8998 
    9300            0    77958.365   -4578.5949            0   -4578.5949 
    9400            0    77518.301   -4579.2813            0   -4579.2813 
    9500            0    77071.694    -4579.959            0    -4579.959 
    9600            0    76629.576   -4580.6279            0   -4580.6279 
    9700            0    76207.933   -4581.2882            0   -4581.2882 
    9800            0    75774.184   -4581.9403            0   -4581.9403 
    9900            0    75334.007   -4582.5841            0   -4582.5841 
   10000            0    74924.824   -4583.2199            0   -4583.2199 
Loop time of 40.6964 on 1 procs for 10000 steps with 2048 atoms

Performance: 21.230 ns/day, 1.130 hours/ns, 245.722 timesteps/s
99.7% CPU use with 1 MPI tasks x 1 OpenMP threads

MPI task timing breakdown:
Section |  min time  |  avg time  |  max time  |%varavg| %total
---------------------------------------------------------------
Pair    | 40.173     | 40.173     | 40.173     |   0.0 | 98.71
Neigh   | 0          | 0          | 0          |   0.0 |  0.00
Comm    | 0.0024313  | 0.0024313  | 0.0024313  |   0.0 |  0.01
Output  | 0.19413    | 0.19413    | 0.19413    |   0.0 |  0.48
Modify  | 0.26542    | 0.26542    | 0.26542    |   0.0 |  0.65
Other   |            | 0.06145    |            |       |  0.15

Nlocal:        2048.00 ave        2048 max        2048 min
Histogram: 1 0 0 0 0 0 0 0 0 0
Nghost:         0.00000 ave           0 max           0 min
Histogram: 1 0 0 0 0 0 0 0 0 0
Neighs:         0.00000 ave           0 max           0 min
Histogram: 1 0 0 0 0 0 0 0 0 0
FullNghs:      437456.0 ave      437456 max      437456 min
Histogram: 1 0 0 0 0 0 0 0 0 0

Total # of neighbors = 437456
Ave neighs/atom = 213.60156
Neighbor list builds = 0
Dangerous builds = 0
unfix 1
clear
OMP_NUM_THREADS environment is not set. Defaulting to 1 thread. (src/comm.cpp:94)
  using 1 OpenMP thread(s) per MPI task
variable lattice_spacing equal ${lattice_spacing}+0.05
variable lattice_spacing equal 3.85+0.05
next a
jump SELF loop1
variable a loop 10
print "Lattice_spacing is ${lattice_spacing}"
Lattice_spacing is 3.9

units metal
boundary f f f
atom_style atomic

lattice fcc ${lattice_spacing} origin 0 0 0
lattice fcc 3.9 origin 0 0 0
Lattice spacing in x,y,z = 3.9000000 3.9000000 3.9000000
region r1 block 0 8 0 8 0 8 units lattice side in
create_box 1 r1
Created orthogonal box = (0.0000000 0.0000000 0.0000000) to (31.200000 31.200000 31.200000)
  1 by 1 by 1 MPI processor grid
#if "$a == 1" then "create_box 1 region$a"
#if "$a > 1" then "delete_atoms group 1" #"change_box 1 boundary p p f units lattice" #"reset_timestep 0"
mass 1 26.98
create_atoms 1 region r1
Created 2048 atoms
  create_atoms CPU = 0.000 seconds
group 1 type 1
2048 atoms in group 1
pair_style kim Morse_Shifted_GirifalcoWeizer_1959LowCutoff_Al__MO_411898953661_004
pair_coeff * * Al
neighbor 2.5 bin
neigh_modify every 1 delay 1
timestep 0.001
dump 1 all atom 100 dump.Al_${lattice_spacing}
dump 1 all atom 100 dump.Al_3.9
thermo 100
thermo_style custom step temp press pe ke etotal
fix 1 all nvt temp 0.0001 0.0001 0.01
run 10000
Neighbor list info ...
  update every 1 steps, delay 1 steps, check yes
  max neighbors/atom: 2000, page size: 100000
  master list distance cutoff = 10.30032
  ghost atom cutoff = 10.30032
  binsize = 5.15016, bins = 7 7 7
  1 neighbor lists, perpetual/occasional/extra = 1 0 0
  (1) pair kim, perpetual
      attributes: full, newton off, cut 10.30032
      pair build: full/bin/atomonly
      stencil: full/bin/3d
      bin: standard
Per MPI rank memory allocation (min/avg/max) = 5.784 | 5.784 | 5.784 Mbytes
Step Temp Press PotEng KinEng TotEng 
       0            0    147275.08    -4394.311            0    -4394.311 
     100            0       141551   -4422.0941            0   -4422.0941 
     200            0    136683.12   -4441.9013            0   -4441.9013 
     300            0    132614.71   -4456.8232            0   -4456.8232 
     400            0    129114.09   -4468.5759            0   -4468.5759 
     500            0    126035.16   -4478.1643            0   -4478.1643 
     600            0    123281.13    -4486.207            0    -4486.207 
     700            0    120785.07   -4493.1034            0   -4493.1034 
     800            0    118498.93    -4499.122            0    -4499.122 
     900            0    116387.15   -4504.4505            0   -4504.4505 
    1000            0    114422.64   -4509.2239            0   -4509.2239 
    1100            0    112584.33   -4513.5423            0   -4513.5423 
    1200            0    110855.46   -4517.4816            0   -4517.4816 
    1300            0    109222.54   -4521.1008            0   -4521.1008 
    1400            0    107695.06   -4524.4465            0   -4524.4465 
    1500            0    106340.61   -4527.5598            0   -4527.5598 
    1600            0    104990.86   -4530.4722            0   -4530.4722 
    1700            0    103707.05   -4533.2052            0   -4533.2052 
    1800            0    102437.09    -4535.779            0    -4535.779 
    1900            0    101227.91   -4538.2109            0   -4538.2109 
    2000            0    100034.23   -4540.5141            0   -4540.5141 
    2100            0    98883.459    -4542.701            0    -4542.701 
    2200            0    97772.384   -4544.7824            0   -4544.7824 
    2300            0    96703.283   -4546.7677            0   -4546.7677 
    2400            0    95663.305    -4548.665            0    -4548.665 
    2500            0    94655.342   -4550.4815            0   -4550.4815 
    2600            0    93677.347   -4552.2235            0   -4552.2235 
    2700            0    92727.469   -4553.8967            0   -4553.8967 
    2800            0    91804.035   -4555.5059            0   -4555.5059 
    2900            0    90905.519   -4557.0558            0   -4557.0558 
    3000            0    90030.533   -4558.5503            0   -4558.5503 
    3100            0    89177.805   -4559.9931            0   -4559.9931 
    3200            0     88346.17   -4561.3874            0   -4561.3874 
    3300            0    87565.522   -4562.7365            0   -4562.7365 
    3400            0    86875.875   -4564.0451            0   -4564.0451 
    3500            0    86105.905   -4565.3147            0   -4565.3147 
    3600            0    85348.005   -4566.5463            0   -4566.5463 
    3700            0    84642.676   -4567.7422            0   -4567.7422 
    3800            0    83927.097   -4568.9048            0   -4568.9048 
    3900            0    83226.536   -4570.0352            0   -4570.0352 
    4000            0    82550.674   -4571.1351            0   -4571.1351 
    4100            0    81940.022    -4572.207            0    -4572.207 
    4200            0    81280.138   -4573.2523            0   -4573.2523 
    4300            0    80632.581   -4574.2717            0   -4574.2717 
    4400            0    80007.009   -4575.2667            0   -4575.2667 
    4500            0     79392.48   -4576.2387            0   -4576.2387 
    4600            0    78794.322   -4577.1878            0   -4577.1878 
    4700            0    78241.837   -4578.1168            0   -4578.1168 
    4800            0    77662.253   -4579.0266            0   -4579.0266 
    4900            0    77067.274   -4579.9155            0   -4579.9155 
    5000            0    76528.813    -4580.785            0    -4580.785 
    5100            0    75984.537   -4581.6357            0   -4581.6357 
    5200            0    75418.643   -4582.4682            0   -4582.4682 
    5300            0    74867.025    -4583.283            0    -4583.283 
    5400            0    74350.045   -4584.0808            0   -4584.0808 
    5500            0    73810.557   -4584.8624            0   -4584.8624 
    5600            0     73279.35   -4585.6281            0   -4585.6281 
    5700            0    72776.807   -4586.3787            0   -4586.3787 
    5800            0    72292.342   -4587.1148            0   -4587.1148 
    5900            0    71784.404   -4587.8368            0   -4587.8368 
    6000            0    71314.788   -4588.5452            0   -4588.5452 
    6100            0    70852.247   -4589.2405            0   -4589.2405 
    6200            0     70375.93   -4589.9232            0   -4589.9232 
    6300            0    69901.168   -4590.5935            0   -4590.5935 
    6400            0    69427.801   -4591.2517            0   -4591.2517 
    6500            0    68960.823   -4591.8981            0   -4591.8981 
    6600            0    68500.067   -4592.5332            0   -4592.5332 
    6700            0    68065.929   -4593.1573            0   -4593.1573 
    6800            0    67632.112   -4593.7713            0   -4593.7713 
    6900            0    67204.055   -4594.3749            0   -4594.3749 
    7000            0    66771.278   -4594.9686            0   -4594.9686 
    7100            0    66364.658   -4595.5525            0   -4595.5525 
    7200            0    65957.976   -4596.1273            0   -4596.1273 
    7300            0    65535.826   -4596.6929            0   -4596.6929 
    7400            0    65175.364   -4597.2498            0   -4597.2498 
    7500            0    64773.335   -4597.7981            0   -4597.7981 
    7600            0    64376.114   -4598.3379            0   -4598.3379 
    7700            0    63983.522   -4598.8696            0   -4598.8696 
    7800            0    63605.939   -4599.3933            0   -4599.3933 
    7900            0    63222.604   -4599.9091            0   -4599.9091 
    8000            0    62853.841   -4600.4175            0   -4600.4175 
    8100            0    62509.744   -4600.9188            0   -4600.9188 
    8200            0    62179.548   -4601.4135            0   -4601.4135 
    8300            0    61822.244   -4601.9015            0   -4601.9015 
    8400            0    61448.451   -4602.3824            0   -4602.3824 
    8500            0    61078.772   -4602.8564            0   -4602.8564 
    8600            0    60738.943   -4603.3237            0   -4603.3237 
    8700            0     60382.37   -4603.7845            0   -4603.7845 
    8800            0    60055.478   -4604.2389            0   -4604.2389 
    8900            0    59711.582   -4604.6872            0   -4604.6872 
    9000            0    59376.419   -4605.1296            0   -4605.1296 
    9100            0    59039.715   -4605.5659            0   -4605.5659 
    9200            0    58706.545   -4605.9964            0   -4605.9964 
    9300            0    58376.675   -4606.4213            0   -4606.4213 
    9400            0    58060.557   -4606.8406            0   -4606.8406 
    9500            0    57763.074   -4607.2548            0   -4607.2548 
    9600            0    57437.881   -4607.6635            0   -4607.6635 
    9700            0    57131.446   -4608.0669            0   -4608.0669 
    9800            0    56838.508   -4608.4654            0   -4608.4654 
    9900            0    56527.963   -4608.8589            0   -4608.8589 
   10000            0    56220.124   -4609.2476            0   -4609.2476 
Loop time of 39.452 on 1 procs for 10000 steps with 2048 atoms

Performance: 21.900 ns/day, 1.096 hours/ns, 253.472 timesteps/s
100.0% CPU use with 1 MPI tasks x 1 OpenMP threads

MPI task timing breakdown:
Section |  min time  |  avg time  |  max time  |%varavg| %total
---------------------------------------------------------------
Pair    | 39.013     | 39.013     | 39.013     |   0.0 | 98.89
Neigh   | 0          | 0          | 0          |   0.0 |  0.00
Comm    | 0.0015465  | 0.0015465  | 0.0015465  |   0.0 |  0.00
Output  | 0.14846    | 0.14846    | 0.14846    |   0.0 |  0.38
Modify  | 0.23595    | 0.23595    | 0.23595    |   0.0 |  0.60
Other   |            | 0.0531     |            |       |  0.13

Nlocal:        2048.00 ave        2048 max        2048 min
Histogram: 1 0 0 0 0 0 0 0 0 0
Nghost:         0.00000 ave           0 max           0 min
Histogram: 1 0 0 0 0 0 0 0 0 0
Neighs:         0.00000 ave           0 max           0 min
Histogram: 1 0 0 0 0 0 0 0 0 0
FullNghs:      437456.0 ave      437456 max      437456 min
Histogram: 1 0 0 0 0 0 0 0 0 0

Total # of neighbors = 437456
Ave neighs/atom = 213.60156
Neighbor list builds = 0
Dangerous builds = 0
unfix 1
clear
OMP_NUM_THREADS environment is not set. Defaulting to 1 thread. (src/comm.cpp:94)
  using 1 OpenMP thread(s) per MPI task
variable lattice_spacing equal ${lattice_spacing}+0.05
variable lattice_spacing equal 3.9+0.05
next a
jump SELF loop1
variable a loop 10
print "Lattice_spacing is ${lattice_spacing}"
Lattice_spacing is 3.95

units metal
boundary f f f
atom_style atomic

lattice fcc ${lattice_spacing} origin 0 0 0
lattice fcc 3.95 origin 0 0 0
Lattice spacing in x,y,z = 3.9500000 3.9500000 3.9500000
region r1 block 0 8 0 8 0 8 units lattice side in
create_box 1 r1
Created orthogonal box = (0.0000000 0.0000000 0.0000000) to (31.600000 31.600000 31.600000)
  1 by 1 by 1 MPI processor grid
#if "$a == 1" then "create_box 1 region$a"
#if "$a > 1" then "delete_atoms group 1" #"change_box 1 boundary p p f units lattice" #"reset_timestep 0"
mass 1 26.98
create_atoms 1 region r1
Created 2048 atoms
  create_atoms CPU = 0.000 seconds
group 1 type 1
2048 atoms in group 1
pair_style kim Morse_Shifted_GirifalcoWeizer_1959LowCutoff_Al__MO_411898953661_004
pair_coeff * * Al
neighbor 2.5 bin
neigh_modify every 1 delay 1
timestep 0.001
dump 1 all atom 100 dump.Al_${lattice_spacing}
dump 1 all atom 100 dump.Al_3.95
thermo 100
thermo_style custom step temp press pe ke etotal
fix 1 all nvt temp 0.0001 0.0001 0.01
run 10000
Neighbor list info ...
  update every 1 steps, delay 1 steps, check yes
  max neighbors/atom: 2000, page size: 100000
  master list distance cutoff = 10.30032
  ghost atom cutoff = 10.30032
  binsize = 5.15016, bins = 7 7 7
  1 neighbor lists, perpetual/occasional/extra = 1 0 0
  (1) pair kim, perpetual
      attributes: full, newton off, cut 10.30032
      pair build: full/bin/atomonly
      stencil: full/bin/3d
      bin: standard
Per MPI rank memory allocation (min/avg/max) = 5.784 | 5.784 | 5.784 Mbytes
Step Temp Press PotEng KinEng TotEng 
       0            0    105386.83   -4487.8229            0   -4487.8229 
     100            0    100925.98   -4507.8755            0   -4507.8755 
     200            0    97305.723    -4522.292            0    -4522.292 
     300            0     94266.98   -4533.1497            0   -4533.1497 
     400            0    91648.966   -4541.6523            0   -4541.6523 
     500            0    89347.304   -4548.5279            0   -4548.5279 
     600            0    87291.363   -4554.2355            0   -4554.2355 
     700            0    85431.534    -4559.076            0    -4559.076 
     800            0    83731.813   -4563.2539            0   -4563.2539 
     900            0    82165.309   -4566.9129            0   -4566.9129 
    1000            0    80711.438   -4570.1566            0   -4570.1566 
    1100            0    79354.102   -4573.0618            0   -4573.0618 
    1200            0    78080.479    -4575.687            0    -4575.687 
    1300            0    76880.186   -4578.0771            0   -4578.0771 
    1400            0    75744.699   -4580.2675            0   -4580.2675 
    1500            0    74666.931   -4582.2865            0   -4582.2865 
    1600            0    73640.925    -4584.157            0    -4584.157 
    1700            0    72661.625   -4585.8978            0   -4585.8978 
    1800            0      71724.7   -4587.5243            0   -4587.5243 
    1900            0    70826.412   -4589.0497            0   -4589.0497 
    2000            0    69963.508   -4590.4848            0   -4590.4848 
    2100            0    69133.146    -4591.839            0    -4591.839 
    2200            0    68332.819   -4593.1203            0   -4593.1203 
    2300            0    67560.311   -4594.3356            0   -4594.3356 
    2400            0    66813.648   -4595.4909            0   -4595.4909 
    2500            0    66091.067   -4596.5915            0   -4596.5915 
    2600            0    65390.984   -4597.6418            0   -4597.6418 
    2700            0    64711.973    -4598.646            0    -4598.646 
    2800            0    64052.743   -4599.6077            0   -4599.6077 
    2900            0    63412.122   -4600.5301            0   -4600.5301 
    3000            0    62789.043   -4601.4159            0   -4601.4159 
    3100            0    62182.531   -4602.2679            0   -4602.2679 
    3200            0    61591.694   -4603.0882            0   -4603.0882 
    3300            0    61015.711   -4603.8791            0   -4603.8791 
    3400            0    60453.828   -4604.6423            0   -4604.6423 
    3500            0    59915.261   -4605.3796            0   -4605.3796 
    3600            0    59379.166   -4606.0932            0   -4606.0932 
    3700            0    58855.254   -4606.7838            0   -4606.7838 
    3800            0    58352.807   -4607.4529            0   -4607.4529 
    3900            0    57880.666   -4608.1027            0   -4608.1027 
    4000            0    57398.524   -4608.7344            0   -4608.7344 
    4100            0     56935.88   -4609.3486            0   -4609.3486 
    4200            0    56531.802   -4609.9469            0   -4609.9469 
    4300            0    56065.769   -4610.5309            0   -4610.5309 
    4400            0    55608.976   -4611.0988            0   -4611.0988 
    4500            0    55161.053   -4611.6513            0   -4611.6513 
    4600            0    54721.654   -4612.1891            0   -4612.1891 
    4700            0    54290.454    -4612.713            0    -4612.713 
    4800            0    53867.148   -4613.2235            0   -4613.2235 
    4900            0    53451.447   -4613.7213            0   -4613.7213 
    5000            0     53043.08   -4614.2068            0   -4614.2068 
    5100            0    52641.791   -4614.6807            0   -4614.6807 
    5200            0    52247.337   -4615.1435            0   -4615.1435 
    5300            0    51859.488   -4615.5955            0   -4615.5955 
    5400            0    51487.702   -4616.0375            0   -4616.0375 
    5500            0    51121.871   -4616.4699            0   -4616.4699 
    5600            0    50752.062   -4616.8928            0   -4616.8928 
    5700            0    50388.072   -4617.3066            0   -4617.3066 
    5800            0    50039.445   -4617.7119            0   -4617.7119 
    5900            0    49686.319   -4618.1087            0   -4618.1087 
    6000            0    49338.512   -4618.4972            0   -4618.4972 
    6100            0    48995.868   -4618.8779            0   -4618.8779 
    6200            0    48668.171    -4619.251            0    -4619.251 
    6300            0     48345.11    -4619.617            0    -4619.617 
    6400            0    48016.602   -4619.9761            0   -4619.9761 
    6500            0    47702.612   -4620.3284            0   -4620.3284 
    6600            0    47392.884   -4620.6743            0   -4620.6743 
    6700            0    47087.222   -4621.0141            0   -4621.0141 
    6800            0    46795.577   -4621.3479            0   -4621.3479 
    6900            0    46507.466   -4621.6764            0   -4621.6764 
    7000            0    46203.355   -4621.9991            0   -4621.9991 
    7100            0    45903.255   -4622.3161            0   -4622.3161 
    7200            0    45616.823   -4622.6276            0   -4622.6276 
    7300            0    45324.218   -4622.9337            0   -4622.9337 
    7400            0     45035.34   -4623.2346            0   -4623.2346 
    7500            0    44750.097   -4623.5303            0   -4623.5303 
    7600            0    44468.402    -4623.821            0    -4623.821 
    7700            0     44190.17   -4624.1069            0   -4624.1069 
    7800            0     43915.32   -4624.3881            0   -4624.3881 
    7900            0    43643.774   -4624.6647            0   -4624.6647 
    8000            0    43375.455   -4624.9368            0   -4624.9368 
    8100            0    43110.292   -4625.2046            0   -4625.2046 
    8200            0    42848.213   -4625.4682            0   -4625.4682 
    8300            0    42589.151   -4625.7277            0   -4625.7277 
    8400            0    42333.041   -4625.9832            0   -4625.9832 
    8500            0    42079.818   -4626.2348            0   -4626.2348 
    8600            0    41839.352   -4626.4826            0   -4626.4826 
    8700            0    41591.494   -4626.7269            0   -4626.7269 
    8800            0    41346.352   -4626.9675            0   -4626.9675 
    8900            0    41103.869   -4627.2047            0   -4627.2047 
    9000            0    40883.786   -4627.4384            0   -4627.4384 
    9100            0    40655.891   -4627.6692            0   -4627.6692 
    9200            0    40420.431   -4627.8968            0   -4627.8968 
    9300            0    40187.441   -4628.1212            0   -4628.1212 
    9400            0    39956.872   -4628.3424            0   -4628.3424 
    9500            0     39728.68   -4628.5604            0   -4628.5604 
    9600            0    39512.596   -4628.7756            0   -4628.7756 
    9700            0    39298.632    -4628.988            0    -4628.988 
    9800            0    39096.425   -4629.1978            0   -4629.1978 
    9900            0    38876.438   -4629.4048            0   -4629.4048 
   10000            0    38658.634    -4629.609            0    -4629.609 
Loop time of 39.0709 on 1 procs for 10000 steps with 2048 atoms

Performance: 22.114 ns/day, 1.085 hours/ns, 255.945 timesteps/s
99.9% CPU use with 1 MPI tasks x 1 OpenMP threads

MPI task timing breakdown:
Section |  min time  |  avg time  |  max time  |%varavg| %total
---------------------------------------------------------------
Pair    | 38.583     | 38.583     | 38.583     |   0.0 | 98.75
Neigh   | 0          | 0          | 0          |   0.0 |  0.00
Comm    | 0.0015374  | 0.0015374  | 0.0015374  |   0.0 |  0.00
Output  | 0.18816    | 0.18816    | 0.18816    |   0.0 |  0.48
Modify  | 0.24333    | 0.24333    | 0.24333    |   0.0 |  0.62
Other   |            | 0.0546     |            |       |  0.14

Nlocal:        2048.00 ave        2048 max        2048 min
Histogram: 1 0 0 0 0 0 0 0 0 0
Nghost:         0.00000 ave           0 max           0 min
Histogram: 1 0 0 0 0 0 0 0 0 0
Neighs:         0.00000 ave           0 max           0 min
Histogram: 1 0 0 0 0 0 0 0 0 0
FullNghs:      437456.0 ave      437456 max      437456 min
Histogram: 1 0 0 0 0 0 0 0 0 0

Total # of neighbors = 437456
Ave neighs/atom = 213.60156
Neighbor list builds = 0
Dangerous builds = 0
unfix 1
clear
OMP_NUM_THREADS environment is not set. Defaulting to 1 thread. (src/comm.cpp:94)
  using 1 OpenMP thread(s) per MPI task
variable lattice_spacing equal ${lattice_spacing}+0.05
variable lattice_spacing equal 3.95+0.05
next a
jump SELF loop1
variable a loop 10
print "Lattice_spacing is ${lattice_spacing}"
Lattice_spacing is 4

units metal
boundary f f f
atom_style atomic

lattice fcc ${lattice_spacing} origin 0 0 0
lattice fcc 4 origin 0 0 0
Lattice spacing in x,y,z = 4.0000000 4.0000000 4.0000000
region r1 block 0 8 0 8 0 8 units lattice side in
create_box 1 r1
Created orthogonal box = (0.0000000 0.0000000 0.0000000) to (32.000000 32.000000 32.000000)
  1 by 1 by 1 MPI processor grid
#if "$a == 1" then "create_box 1 region$a"
#if "$a > 1" then "delete_atoms group 1" #"change_box 1 boundary p p f units lattice" #"reset_timestep 0"
mass 1 26.98
create_atoms 1 region r1
Created 2048 atoms
  create_atoms CPU = 0.000 seconds
group 1 type 1
2048 atoms in group 1
pair_style kim Morse_Shifted_GirifalcoWeizer_1959LowCutoff_Al__MO_411898953661_004
pair_coeff * * Al
neighbor 2.5 bin
neigh_modify every 1 delay 1
timestep 0.001
dump 1 all atom 100 dump.Al_${lattice_spacing}
dump 1 all atom 100 dump.Al_4
thermo 100
thermo_style custom step temp press pe ke etotal
fix 1 all nvt temp 0.0001 0.0001 0.01
run 10000
Neighbor list info ...
  update every 1 steps, delay 1 steps, check yes
  max neighbors/atom: 2000, page size: 100000
  master list distance cutoff = 10.30032
  ghost atom cutoff = 10.30032
  binsize = 5.15016, bins = 7 7 7
  1 neighbor lists, perpetual/occasional/extra = 1 0 0
  (1) pair kim, perpetual
      attributes: full, newton off, cut 10.30032
      pair build: full/bin/atomonly
      stencil: full/bin/3d
      bin: standard
Per MPI rank memory allocation (min/avg/max) = 5.784 | 5.784 | 5.784 Mbytes
Step Temp Press PotEng KinEng TotEng 
       0            0    68176.938   -4553.1023            0   -4553.1023 
     100            0    64941.897   -4567.3959            0   -4567.3959 
     200            0    62296.991   -4577.7526            0   -4577.7526 
     300            0    60071.105   -4585.5483            0   -4585.5483 
     400            0    58154.047   -4591.6142            0   -4591.6142 
     500            0     56472.19   -4596.4698            0   -4596.4698 
     600            0    54974.604   -4600.4508            0   -4600.4508 
     700            0    53624.924   -4603.7812            0   -4603.7812 
     800            0    52396.426   -4606.6149            0   -4606.6149 
     900            0    51268.968   -4609.0608            0   -4609.0608 
    1000            0    50227.025   -4611.1981            0   -4611.1981 
    1100            0    49258.391   -4613.0853            0   -4613.0853 
    1200            0    48353.307    -4614.767            0    -4614.767 
    1300            0    47503.846   -4616.2774            0   -4616.2774 
    1400            0    46703.487   -4617.6435            0   -4617.6435 
    1500            0      45946.8   -4618.8867            0   -4618.8867 
    1600            0    45229.217   -4620.0243            0   -4620.0243 
    1700            0    44546.855   -4621.0703            0   -4621.0703 
    1800            0     43896.39   -4622.0364            0   -4622.0364 
    1900            0    43274.951   -4622.9322            0   -4622.9322 
    2000            0    42680.042   -4623.7659            0   -4623.7659 
    2100            0    42109.479   -4624.5444            0   -4624.5444 
    2200            0    41561.342   -4625.2735            0   -4625.2735 
    2300            0     41033.93   -4625.9583            0   -4625.9583 
    2400            0    40525.731    -4626.603            0    -4626.603 
    2500            0    40035.395   -4627.2116            0   -4627.2116 
    2600            0    39561.712   -4627.7871            0   -4627.7871 
    2700            0    39103.591   -4628.3327            0   -4628.3327 
    2800            0    38669.601   -4628.8508            0   -4628.8508 
    2900            0    38239.372   -4629.3443            0   -4629.3443 
    3000            0    37822.038   -4629.8146            0   -4629.8146 
    3100            0     37426.12   -4630.2639            0   -4630.2639 
    3200            0    37032.081   -4630.6934            0   -4630.6934 
    3300            0    36667.442   -4631.1055            0   -4631.1055 
    3400            0     36312.43   -4631.5015            0   -4631.5015 
    3500            0    35966.529   -4631.8826            0   -4631.8826 
    3600            0     35676.31   -4632.2511            0   -4632.2511 
    3700            0    35336.475    -4632.607            0    -4632.607 
    3800            0    34995.496   -4632.9496            0   -4632.9496 
    3900            0    34662.746   -4633.2794            0   -4633.2794 
    4000            0    34337.842   -4633.5972            0   -4633.5972 
    4100            0    34020.431   -4633.9038            0   -4633.9038 
    4200            0    33719.679   -4634.1999            0   -4634.1999 
    4300            0    33416.024   -4634.4863            0   -4634.4863 
    4400            0    33118.942   -4634.7632            0   -4634.7632 
    4500            0    32828.164   -4635.0312            0   -4635.0312 
    4600            0    32552.957   -4635.2908            0   -4635.2908 
    4700            0    32292.756   -4635.5429            0   -4635.5429 
    4800            0    32018.705   -4635.7878            0   -4635.7878 
    4900            0    31759.626   -4636.0253            0   -4636.0253 
    5000            0    31505.466   -4636.2563            0   -4636.2563 
    5100            0    31256.047   -4636.4811            0   -4636.4811 
    5200            0    31030.317      -4636.7            0      -4636.7 
    5300            0    30798.878   -4636.9139            0   -4636.9139 
    5400            0    30552.684   -4637.1221            0   -4637.1221 
    5500            0    30310.915   -4637.3247            0   -4637.3247 
    5600            0    30073.422    -4637.522            0    -4637.522 
    5700            0    29840.062   -4637.7141            0   -4637.7141 
    5800            0      29610.7   -4637.9013            0   -4637.9013 
    5900            0    29385.207   -4638.0838            0   -4638.0838 
    6000            0    29163.461   -4638.2617            0   -4638.2617 
    6100            0    28945.345   -4638.4354            0   -4638.4354 
    6200            0    28730.747   -4638.6048            0   -4638.6048 
    6300            0    28519.561   -4638.7703            0   -4638.7703 
    6400            0    28311.685   -4638.9319            0   -4638.9319 
    6500            0    28107.023   -4639.0898            0   -4639.0898 
    6600            0    27905.482   -4639.2442            0   -4639.2442 
    6700            0    27706.973   -4639.3951            0   -4639.3951 
    6800            0    27511.411   -4639.5427            0   -4639.5427 
    6900            0    27318.714   -4639.6871            0   -4639.6871 
    7000            0    27128.805   -4639.8284            0   -4639.8284 
    7100            0    26941.609   -4639.9668            0   -4639.9668 
    7200            0    26757.053   -4640.1023            0   -4640.1023 
    7300            0     26575.07    -4640.235            0    -4640.235 
    7400            0    26405.164    -4640.365            0    -4640.365 
    7500            0    26227.928   -4640.4927            0   -4640.4927 
    7600            0    26053.078   -4640.6178            0   -4640.6178 
    7700            0    25880.556   -4640.7405            0   -4640.7405 
    7800            0    25710.304   -4640.8609            0   -4640.8609 
    7900            0    25551.747   -4640.9789            0   -4640.9789 
    8000            0    25395.162    -4641.095            0    -4641.095 
    8100            0    25230.951    -4641.209            0    -4641.209 
    8200            0    25068.816   -4641.3209            0   -4641.3209 
    8300            0     24908.71   -4641.4308            0   -4641.4308 
    8400            0    24760.118   -4641.5387            0   -4641.5387 
    8500            0    24613.275   -4641.6449            0   -4641.6449 
    8600            0    24477.439   -4641.7496            0   -4641.7496 
    8700            0    24324.154   -4641.8526            0   -4641.8526 
    8800            0    24172.697   -4641.9538            0   -4641.9538 
    8900            0     24023.03   -4642.0532            0   -4642.0532 
    9000            0    23875.114    -4642.151            0    -4642.151 
    9100            0    23738.413   -4642.2472            0   -4642.2472 
    9200            0    23593.682   -4642.3418            0   -4642.3418 
    9300            0      23460.1    -4642.435            0    -4642.435 
    9400            0    23318.426   -4642.5267            0   -4642.5267 
    9500            0    23178.339   -4642.6169            0   -4642.6169 
    9600            0    23039.808   -4642.7057            0   -4642.7057 
    9700            0    22921.734   -4642.7932            0   -4642.7932 
    9800            0    22785.814   -4642.8794            0   -4642.8794 
    9900            0    22679.661   -4642.9647            0   -4642.9647 
   10000            0    22546.048   -4643.0487            0   -4643.0487 
Loop time of 40.1831 on 1 procs for 10000 steps with 2048 atoms

Performance: 21.502 ns/day, 1.116 hours/ns, 248.861 timesteps/s
99.8% CPU use with 1 MPI tasks x 1 OpenMP threads

MPI task timing breakdown:
Section |  min time  |  avg time  |  max time  |%varavg| %total
---------------------------------------------------------------
Pair    | 39.675     | 39.675     | 39.675     |   0.0 | 98.74
Neigh   | 0          | 0          | 0          |   0.0 |  0.00
Comm    | 0.0017107  | 0.0017107  | 0.0017107  |   0.0 |  0.00
Output  | 0.20177    | 0.20177    | 0.20177    |   0.0 |  0.50
Modify  | 0.24837    | 0.24837    | 0.24837    |   0.0 |  0.62
Other   |            | 0.05611    |            |       |  0.14

Nlocal:        2048.00 ave        2048 max        2048 min
Histogram: 1 0 0 0 0 0 0 0 0 0
Nghost:         0.00000 ave           0 max           0 min
Histogram: 1 0 0 0 0 0 0 0 0 0
Neighs:         0.00000 ave           0 max           0 min
Histogram: 1 0 0 0 0 0 0 0 0 0
FullNghs:      437456.0 ave      437456 max      437456 min
Histogram: 1 0 0 0 0 0 0 0 0 0

Total # of neighbors = 437456
Ave neighs/atom = 213.60156
Neighbor list builds = 0
Dangerous builds = 0
unfix 1
clear
OMP_NUM_THREADS environment is not set. Defaulting to 1 thread. (src/comm.cpp:94)
  using 1 OpenMP thread(s) per MPI task
variable lattice_spacing equal ${lattice_spacing}+0.05
variable lattice_spacing equal 4+0.05
next a
jump SELF loop1
variable a loop 10
print "Lattice_spacing is ${lattice_spacing}"
Lattice_spacing is 4.05

units metal
boundary f f f
atom_style atomic

lattice fcc ${lattice_spacing} origin 0 0 0
lattice fcc 4.05 origin 0 0 0
Lattice spacing in x,y,z = 4.0500000 4.0500000 4.0500000
region r1 block 0 8 0 8 0 8 units lattice side in
create_box 1 r1
Created orthogonal box = (0.0000000 0.0000000 0.0000000) to (32.400000 32.400000 32.400000)
  1 by 1 by 1 MPI processor grid
#if "$a == 1" then "create_box 1 region$a"
#if "$a > 1" then "delete_atoms group 1" #"change_box 1 boundary p p f units lattice" #"reset_timestep 0"
mass 1 26.98
create_atoms 1 region r1
Created 2048 atoms
  create_atoms CPU = 0.000 seconds
group 1 type 1
2048 atoms in group 1
pair_style kim Morse_Shifted_GirifalcoWeizer_1959LowCutoff_Al__MO_411898953661_004
pair_coeff * * Al
neighbor 2.5 bin
neigh_modify every 1 delay 1
timestep 0.001
dump 1 all atom 100 dump.Al_${lattice_spacing}
dump 1 all atom 100 dump.Al_4.05
thermo 100
thermo_style custom step temp press pe ke etotal
fix 1 all nvt temp 0.0001 0.0001 0.01
run 10000
Neighbor list info ...
  update every 1 steps, delay 1 steps, check yes
  max neighbors/atom: 2000, page size: 100000
  master list distance cutoff = 10.30032
  ghost atom cutoff = 10.30032
  binsize = 5.15016, bins = 7 7 7
  1 neighbor lists, perpetual/occasional/extra = 1 0 0
  (1) pair kim, perpetual
      attributes: full, newton off, cut 10.30032
      pair build: full/bin/atomonly
      stencil: full/bin/3d
      bin: standard
Per MPI rank memory allocation (min/avg/max) = 5.403 | 5.403 | 5.403 Mbytes
Step Temp Press PotEng KinEng TotEng 
       0            0    36738.761   -4593.4425            0   -4593.4425 
     100            0     34442.24   -4603.4999            0   -4603.4999 
     200            0     32555.02    -4610.849            0    -4610.849 
     300            0     30965.76    -4616.385            0    -4616.385 
     400            0    29600.164   -4620.6708            0   -4620.6708 
     500            0    28407.153   -4624.0696            0   -4624.0696 
     600            0     27350.59   -4626.8224            0   -4626.8224 
     700            0     26404.22   -4629.0928            0   -4629.0928 
     800            0     25548.49    -4630.995            0    -4630.995 
     900            0    24768.512   -4632.6104            0   -4632.6104 
    1000            0     24052.72   -4633.9986            0   -4633.9986 
    1100            0    23391.965   -4635.2037            0   -4635.2037 
    1200            0      22778.9   -4636.2594            0   -4636.2594 
    1300            0    22207.536   -4637.1916            0   -4637.1916 
    1400            0    21672.934   -4638.0205            0   -4638.0205 
    1500            0    21170.971   -4638.7622            0   -4638.7622 
    1600            0    20698.176   -4639.4297            0   -4639.4297 
    1700            0    20251.594   -4640.0333            0   -4640.0333 
    1800            0    19828.695   -4640.5819            0   -4640.5819 
    1900            0    19427.293   -4641.0824            0   -4641.0824 
    2000            0    19045.487   -4641.5409            0   -4641.5409 
    2100            0    18690.493   -4641.9631            0   -4641.9631 
    2200            0    18351.702   -4642.3531            0   -4642.3531 
    2300            0    18018.835    -4642.714            0    -4642.714 
    2400            0    17709.076   -4643.0491            0   -4643.0491 
    2500            0    17421.331   -4643.3613            0   -4643.3613 
    2600            0    17144.841    -4643.654            0    -4643.654 
    2700            0    16879.187   -4643.9284            0   -4643.9284 
    2800            0    16668.345   -4644.1888            0   -4644.1888 
    2900            0     16402.01   -4644.4346            0   -4644.4346 
    3000            0    16163.498   -4644.6658            0   -4644.6658 
    3100            0     15915.05   -4644.8841            0   -4644.8841 
    3200            0    15684.067   -4645.0902            0   -4645.0902 
    3300            0    15451.699   -4645.2849            0   -4645.2849 
    3400            0    15244.922   -4645.4696            0   -4645.4696 
    3500            0    15072.128   -4645.6459            0   -4645.6459 
    3600            0    14877.498   -4645.8144            0   -4645.8144 
    3700            0    14670.709   -4645.9746            0   -4645.9746 
    3800            0    14470.033   -4646.1267            0   -4646.1267 
    3900            0    14275.165   -4646.2714            0   -4646.2714 
    4000            0    14085.819   -4646.4092            0   -4646.4092 
    4100            0    13901.732   -4646.5406            0   -4646.5406 
    4200            0    13722.657   -4646.6659            0   -4646.6659 
    4300            0    13548.363   -4646.7856            0   -4646.7856 
    4400            0    13378.636      -4646.9            0      -4646.9 
    4500            0    13213.274   -4647.0095            0   -4647.0095 
    4600            0    13052.088   -4647.1144            0   -4647.1144 
    4700            0    12894.902   -4647.2149            0   -4647.2149 
    4800            0    12741.548   -4647.3113            0   -4647.3113 
    4900            0    12591.871   -4647.4038            0   -4647.4038 
    5000            0    12445.723   -4647.4927            0   -4647.4927 
    5100            0    12302.965   -4647.5782            0   -4647.5782 
    5200            0    12163.465   -4647.6604            0   -4647.6604 
    5300            0     12036.31   -4647.7396            0   -4647.7396 
    5400            0    11902.763    -4647.816            0    -4647.816 
    5500            0    11772.132   -4647.8895            0   -4647.8895 
    5600            0    11644.311   -4647.9605            0   -4647.9605 
    5700            0    11537.519   -4648.0291            0   -4648.0291 
    5800            0     11414.59   -4648.0956            0   -4648.0956 
    5900            0    11294.202   -4648.1599            0   -4648.1599 
    6000            0    11176.267   -4648.2219            0   -4648.2219 
    6100            0    11060.704   -4648.2819            0   -4648.2819 
    6200            0    10947.432     -4648.34            0     -4648.34 
    6300            0    10836.378   -4648.3962            0   -4648.3962 
    6400            0    10727.469   -4648.4505            0   -4648.4505 
    6500            0    10620.637   -4648.5032            0   -4648.5032 
    6600            0    10515.817   -4648.5542            0   -4648.5542 
    6700            0    10412.947   -4648.6036            0   -4648.6036 
    6800            0    10330.316   -4648.6516            0   -4648.6516 
    6900            0    10258.062   -4648.6985            0   -4648.6985 
    7000            0    10187.017   -4648.7443            0   -4648.7443 
    7100            0    10098.877   -4648.7891            0   -4648.7891 
    7200            0    10030.544   -4648.8329            0   -4648.8329 
    7300            0    9945.0645   -4648.8757            0   -4648.8757 
    7400            0    9879.4677   -4648.9175            0   -4648.9175 
    7500            0    9787.3487   -4648.9583            0   -4648.9583 
    7600            0    9714.9992   -4648.9982            0   -4648.9982 
    7700            0    9643.8656   -4649.0372            0   -4649.0372 
    7800            0    9555.7228   -4649.0752            0   -4649.0752 
    7900            0    9487.4839   -4649.1123            0   -4649.1123 
    8000            0    9401.9646   -4649.1485            0   -4649.1485 
    8100            0    9327.0383   -4649.1838            0   -4649.1838 
    8200            0    9244.1364   -4649.2182            0   -4649.2182 
    8300            0    9162.5876   -4649.2518            0   -4649.2518 
    8400            0    9100.5702   -4649.2846            0   -4649.2846 
    8500            0    9021.2656   -4649.3167            0   -4649.3167 
    8600            0    8952.3853   -4649.3479            0   -4649.3479 
    8700            0    8884.5881   -4649.3785            0   -4649.3785 
    8800            0    8835.9614   -4649.4087            0   -4649.4087 
    8900            0    8787.8044   -4649.4385            0   -4649.4385 
    9000            0    8722.2307   -4649.4677            0   -4649.4677 
    9100            0    8648.4087   -4649.4963            0   -4649.4963 
    9200            0    8575.7063   -4649.5242            0   -4649.5242 
    9300            0    8504.0951   -4649.5513            0   -4649.5513 
    9400            0    8433.5481   -4649.5778            0   -4649.5778 
    9500            0    8364.0396   -4649.6037            0   -4649.6037 
    9600            0    8295.5445    -4649.629            0    -4649.629 
    9700            0     8228.039   -4649.6536            0   -4649.6536 
    9800            0    8161.4999   -4649.6777            0   -4649.6777 
    9900            0    8095.9049   -4649.7012            0   -4649.7012 
   10000            0    8031.2326   -4649.7242            0   -4649.7242 
Loop time of 37.2513 on 1 procs for 10000 steps with 2048 atoms

Performance: 23.194 ns/day, 1.035 hours/ns, 268.447 timesteps/s
100.0% CPU use with 1 MPI tasks x 1 OpenMP threads

MPI task timing breakdown:
Section |  min time  |  avg time  |  max time  |%varavg| %total
---------------------------------------------------------------
Pair    | 36.797     | 36.797     | 36.797     |   0.0 | 98.78
Neigh   | 0          | 0          | 0          |   0.0 |  0.00
Comm    | 0.001556   | 0.001556   | 0.001556   |   0.0 |  0.00
Output  | 0.15294    | 0.15294    | 0.15294    |   0.0 |  0.41
Modify  | 0.24454    | 0.24454    | 0.24454    |   0.0 |  0.66
Other   |            | 0.05518    |            |       |  0.15

Nlocal:        2048.00 ave        2048 max        2048 min
Histogram: 1 0 0 0 0 0 0 0 0 0
Nghost:         0.00000 ave           0 max           0 min
Histogram: 1 0 0 0 0 0 0 0 0 0
Neighs:         0.00000 ave           0 max           0 min
Histogram: 1 0 0 0 0 0 0 0 0 0
FullNghs:      349616.0 ave      349616 max      349616 min
Histogram: 1 0 0 0 0 0 0 0 0 0

Total # of neighbors = 349616
Ave neighs/atom = 170.71094
Neighbor list builds = 0
Dangerous builds = 0
unfix 1
clear
OMP_NUM_THREADS environment is not set. Defaulting to 1 thread. (src/comm.cpp:94)
  using 1 OpenMP thread(s) per MPI task
variable lattice_spacing equal ${lattice_spacing}+0.05
variable lattice_spacing equal 4.05+0.05
next a
jump SELF loop1
variable a loop 10
print "Lattice_spacing is ${lattice_spacing}"
Lattice_spacing is 4.1

units metal
boundary f f f
atom_style atomic

lattice fcc ${lattice_spacing} origin 0 0 0
lattice fcc 4.1 origin 0 0 0
Lattice spacing in x,y,z = 4.1000000 4.1000000 4.1000000
region r1 block 0 8 0 8 0 8 units lattice side in
create_box 1 r1
Created orthogonal box = (0.0000000 0.0000000 0.0000000) to (32.800000 32.800000 32.800000)
  1 by 1 by 1 MPI processor grid
#if "$a == 1" then "create_box 1 region$a"
#if "$a > 1" then "delete_atoms group 1" #"change_box 1 boundary p p f units lattice" #"reset_timestep 0"
mass 1 26.98
create_atoms 1 region r1
Created 2048 atoms
  create_atoms CPU = 0.000 seconds
group 1 type 1
2048 atoms in group 1
pair_style kim Morse_Shifted_GirifalcoWeizer_1959LowCutoff_Al__MO_411898953661_004
pair_coeff * * Al
neighbor 2.5 bin
neigh_modify every 1 delay 1
timestep 0.001
dump 1 all atom 100 dump.Al_${lattice_spacing}
dump 1 all atom 100 dump.Al_4.1
thermo 100
thermo_style custom step temp press pe ke etotal
fix 1 all nvt temp 0.0001 0.0001 0.01
run 10000
Neighbor list info ...
  update every 1 steps, delay 1 steps, check yes
  max neighbors/atom: 2000, page size: 100000
  master list distance cutoff = 10.30032
  ghost atom cutoff = 10.30032
  binsize = 5.15016, bins = 7 7 7
  1 neighbor lists, perpetual/occasional/extra = 1 0 0
  (1) pair kim, perpetual
      attributes: full, newton off, cut 10.30032
      pair build: full/bin/atomonly
      stencil: full/bin/3d
      bin: standard
Per MPI rank memory allocation (min/avg/max) = 5.403 | 5.403 | 5.403 Mbytes
Step Temp Press PotEng KinEng TotEng 
       0            0    10297.039   -4611.8117            0   -4611.8117 
     100 1.4185386e-288    8712.8904    -4618.829 3.7533896e-289    -4618.829 
     200            0    7408.7653   -4624.0144            0   -4624.0144 
     300            0    6313.3862   -4627.9389            0   -4627.9389 
     400            0    5377.5526   -4630.9755            0   -4630.9755 
     500            0    4566.4727   -4633.3727            0   -4633.3727 
     600            0    3854.9659   -4635.2995            0   -4635.2995 
     700            0    3224.4008   -4636.8733            0   -4636.8733 
     800            0    2660.7023   -4638.1772            0   -4638.1772 
     900            0    2153.0316    -4639.271            0    -4639.271 
    1000            0    1692.8943   -4640.1988            0   -4640.1988 
    1100            0    1273.5263   -4640.9936            0   -4640.9936 
    1200            0    898.12872   -4641.6812            0   -4641.6812 
    1300            0    561.76011   -4642.2819            0   -4642.2819 
    1400            0    234.69744   -4642.8091            0   -4642.8091 
    1500            0   -68.251413   -4643.2745            0   -4643.2745 
    1600            0   -332.29656   -4643.6885            0   -4643.6885 
    1700            0   -560.23712   -4644.0603            0   -4644.0603 
    1800            0    -729.3988   -4644.4001            0   -4644.4001 
    1900            0    -884.6261    -4644.711            0    -4644.711 
    2000            0   -1088.6385   -4644.9948            0   -4644.9948 
    2100            0   -1297.2082   -4645.2529            0   -4645.2529 
    2200            0   -1493.5246   -4645.4881            0   -4645.4881 
    2300            0   -1678.5945   -4645.7032            0   -4645.7032 
    2400            0   -1853.3119   -4645.9004            0   -4645.9004 
    2500            0   -2018.4735   -4646.0817            0   -4646.0817 
    2600            0   -2174.7922    -4646.249            0    -4646.249 
    2700            0   -2270.5144   -4646.4048            0   -4646.4048 
    2800            0   -2403.6159   -4646.5498            0   -4646.5498 
    2900            0   -2538.4761   -4646.6846            0   -4646.6846 
    3000            0   -2631.3413   -4646.8105            0   -4646.8105 
    3100            0   -2710.1324   -4646.9293            0   -4646.9293 
    3200            0   -2827.7151   -4647.0408            0   -4647.0408 
    3300            0   -2922.2288   -4647.1455            0   -4647.1455 
    3400            0   -3020.6832    -4647.244            0    -4647.244 
    3500            0   -3123.0781   -4647.3365            0   -4647.3365 
    3600            0    -3212.031   -4647.4237            0   -4647.4237 
    3700            0   -3296.7659    -4647.506            0    -4647.506 
    3800            0    -3386.312   -4647.5839            0   -4647.5839 
    3900            0   -3471.9087   -4647.6576            0   -4647.6576 
    4000            0   -3536.1359   -4647.7274            0   -4647.7274 
    4100            0   -3597.1385   -4647.7938            0   -4647.7938 
    4200            0   -3672.7088    -4647.857            0    -4647.857 
    4300            0   -3745.0603    -4647.917            0    -4647.917 
    4400            0    -3814.355   -4647.9741            0   -4647.9741 
    4500            0   -3880.7438   -4648.0285            0   -4648.0285 
    4600            0   -3926.6688   -4648.0805            0   -4648.0805 
    4700            0   -3970.2961   -4648.1304            0   -4648.1304 
    4800            0   -4020.4366   -4648.1783            0   -4648.1783 
    4900            0   -4077.1367   -4648.2241            0   -4648.2241 
    5000            0   -4131.5194    -4648.268            0    -4648.268 
    5100            0   -4174.7999   -4648.3101            0   -4648.3101 
    5200            0   -4216.1826   -4648.3507            0   -4648.3507 
    5300            0   -4255.7335   -4648.3899            0   -4648.3899 
    5400            0   -4275.9276   -4648.4279            0   -4648.4279 
    5500            0   -4303.5174   -4648.4648            0   -4648.4648 
    5600            0   -4312.1002   -4648.5007            0   -4648.5007 
    5700            0   -4328.3497   -4648.5358            0   -4648.5358 
    5800            0   -4352.3195   -4648.5699            0   -4648.5699 
    5900            0   -4374.9354    -4648.603            0    -4648.603 
    6000            0   -4413.9758   -4648.6352            0   -4648.6352 
    6100            0   -4442.6014   -4648.6662            0   -4648.6662 
    6200            0   -4461.1783   -4648.6964            0   -4648.6964 
    6300            0   -4478.7709   -4648.7259            0   -4648.7259 
    6400            0   -4486.5311   -4648.7548            0   -4648.7548 
    6500            0   -4493.4555    -4648.783            0    -4648.783 
    6600            0   -4517.0533   -4648.8105            0   -4648.8105 
    6700            0   -4504.4118   -4648.8374            0   -4648.8374 
    6800            0   -4500.0558   -4648.8639            0   -4648.8639 
    6900            0   -4486.4933   -4648.8902            0   -4648.8902 
    7000            0   -4507.7704    -4648.916            0    -4648.916 
    7100            0   -4528.0429   -4648.9411            0   -4648.9411 
    7200            0   -4529.8237   -4648.9657            0   -4648.9657 
    7300            0   -4539.8134   -4648.9898            0   -4648.9898 
    7400            0   -4566.6214   -4649.0133            0   -4649.0133 
    7500            0    -4565.968   -4649.0363            0   -4649.0363 
    7600            0   -4591.1712   -4649.0588            0   -4649.0588 
    7700            0   -4571.3371   -4649.0809            0   -4649.0809 
    7800            0   -4568.9886   -4649.1028            0   -4649.1028 
    7900            0   -4583.7105   -4649.1242            0   -4649.1242 
    8000            0   -4588.9964   -4649.1451            0   -4649.1451 
    8100            0   -4593.7132   -4649.1657            0   -4649.1657 
    8200            0   -4606.4696   -4649.1858            0   -4649.1858 
    8300            0   -4618.6207   -4649.2055            0   -4649.2055 
    8400            0   -4603.5424   -4649.2248            0   -4649.2248 
    8500            0   -4623.6222   -4649.2439            0   -4649.2439 
    8600            0   -4598.7669   -4649.2628            0   -4649.2628 
    8700            0   -4600.3412   -4649.2814            0   -4649.2814 
    8800            0   -4575.1625   -4649.2999            0   -4649.2999 
    8900            0   -4593.9786   -4649.3181            0   -4649.3181 
    9000            0    -4568.017   -4649.3361            0   -4649.3361 
    9100            0   -4559.4468   -4649.3537            0   -4649.3537 
    9200            0   -4568.4907   -4649.3713            0   -4649.3713 
    9300            0   -4576.8908   -4649.3884            0   -4649.3884 
    9400            0   -4584.6272   -4649.4052            0   -4649.4052 
    9500            0   -4582.9551   -4649.4218            0   -4649.4218 
    9600            0   -4589.7111    -4649.438            0    -4649.438 
    9700            0     -4596.03    -4649.454            0    -4649.454 
    9800            0   -4566.8271     -4649.47            0     -4649.47 
    9900            0   -4581.5977   -4649.4857            0   -4649.4857 
   10000            0   -4595.7038   -4649.5011            0   -4649.5011 
Loop time of 36.4823 on 1 procs for 10000 steps with 2048 atoms

Performance: 23.683 ns/day, 1.013 hours/ns, 274.105 timesteps/s
99.9% CPU use with 1 MPI tasks x 1 OpenMP threads

MPI task timing breakdown:
Section |  min time  |  avg time  |  max time  |%varavg| %total
---------------------------------------------------------------
Pair    | 36.017     | 36.017     | 36.017     |   0.0 | 98.73
Neigh   | 0          | 0          | 0          |   0.0 |  0.00
Comm    | 0.0015525  | 0.0015525  | 0.0015525  |   0.0 |  0.00
Output  | 0.16075    | 0.16075    | 0.16075    |   0.0 |  0.44
Modify  | 0.24776    | 0.24776    | 0.24776    |   0.0 |  0.68
Other   |            | 0.05506    |            |       |  0.15

Nlocal:        2048.00 ave        2048 max        2048 min
Histogram: 1 0 0 0 0 0 0 0 0 0
Nghost:         0.00000 ave           0 max           0 min
Histogram: 1 0 0 0 0 0 0 0 0 0
Neighs:         0.00000 ave           0 max           0 min
Histogram: 1 0 0 0 0 0 0 0 0 0
FullNghs:      349616.0 ave      349616 max      349616 min
Histogram: 1 0 0 0 0 0 0 0 0 0

Total # of neighbors = 349616
Ave neighs/atom = 170.71094
Neighbor list builds = 0
Dangerous builds = 0
unfix 1
clear
OMP_NUM_THREADS environment is not set. Defaulting to 1 thread. (src/comm.cpp:94)
  using 1 OpenMP thread(s) per MPI task
variable lattice_spacing equal ${lattice_spacing}+0.05
variable lattice_spacing equal 4.1+0.05
next a
jump SELF loop1
variable a loop 10
print "Lattice_spacing is ${lattice_spacing}"
Lattice_spacing is 4.15

units metal
boundary f f f
atom_style atomic

lattice fcc ${lattice_spacing} origin 0 0 0
lattice fcc 4.15 origin 0 0 0
Lattice spacing in x,y,z = 4.1500000 4.1500000 4.1500000
region r1 block 0 8 0 8 0 8 units lattice side in
create_box 1 r1
Created orthogonal box = (0.0000000 0.0000000 0.0000000) to (33.200000 33.200000 33.200000)
  1 by 1 by 1 MPI processor grid
#if "$a == 1" then "create_box 1 region$a"
#if "$a > 1" then "delete_atoms group 1" #"change_box 1 boundary p p f units lattice" #"reset_timestep 0"
mass 1 26.98
create_atoms 1 region r1
Created 2048 atoms
  create_atoms CPU = 0.000 seconds
group 1 type 1
2048 atoms in group 1
pair_style kim Morse_Shifted_GirifalcoWeizer_1959LowCutoff_Al__MO_411898953661_004
pair_coeff * * Al
neighbor 2.5 bin
neigh_modify every 1 delay 1
timestep 0.001
dump 1 all atom 100 dump.Al_${lattice_spacing}
dump 1 all atom 100 dump.Al_4.15
thermo 100
thermo_style custom step temp press pe ke etotal
fix 1 all nvt temp 0.0001 0.0001 0.01
run 10000
Neighbor list info ...
  update every 1 steps, delay 1 steps, check yes
  max neighbors/atom: 2000, page size: 100000
  master list distance cutoff = 10.30032
  ghost atom cutoff = 10.30032
  binsize = 5.15016, bins = 7 7 7
  1 neighbor lists, perpetual/occasional/extra = 1 0 0
  (1) pair kim, perpetual
      attributes: full, newton off, cut 10.30032
      pair build: full/bin/atomonly
      stencil: full/bin/3d
      bin: standard
Per MPI rank memory allocation (min/avg/max) = 5.403 | 5.403 | 5.403 Mbytes
Step Temp Press PotEng KinEng TotEng 
       0            0   -11822.321   -4610.8804            0   -4610.8804 
     100 2.7441251e-202   -12871.393   -4615.7881 7.260832e-203   -4615.7881 
     200            0   -13731.778   -4619.4791            0   -4619.4791 
     300            0   -14439.815   -4622.3101            0   -4622.3101 
     400            0   -15028.495   -4624.5262            0   -4624.5262 
     500            0   -15249.195   -4626.3003            0   -4626.3003 
     600            0   -15494.143   -4627.7664            0   -4627.7664 
     700            0   -15844.852   -4628.9791            0   -4628.9791 
     800            0   -16189.392   -4629.9911            0   -4629.9911 
     900            0   -16492.042    -4630.845            0    -4630.845 
    1000            0   -16708.248   -4631.5752            0   -4631.5752 
    1100            0   -16877.745   -4632.2071            0   -4632.2071 
    1200            0   -16894.376   -4632.7621            0   -4632.7621 
    1300            0    -16309.72   -4633.2753            0   -4633.2753 
    1400            0   -16326.546   -4633.7388            0   -4633.7388 
    1500            0   -16234.762   -4634.1594            0   -4634.1594 
    1600            0   -16317.327   -4634.5414            0   -4634.5414 
    1700            0   -16377.193   -4634.8883            0   -4634.8883 
    1800            0   -16475.617   -4635.2048            0   -4635.2048 
    1900            0   -16553.549   -4635.4944            0   -4635.4944 
    2000            0   -16637.566   -4635.7603            0   -4635.7603 
    2100            0   -16720.148   -4636.0056            0   -4636.0056 
    2200            0   -16810.331   -4636.2326            0   -4636.2326 
    2300            0   -16891.712   -4636.4432            0   -4636.4432 
    2400            0   -16965.208   -4636.6398            0   -4636.6398 
    2500            0    -17014.36   -4636.8239            0   -4636.8239 
    2600            0   -17082.553    -4636.997            0    -4636.997 
    2700            0   -17101.458   -4637.1599            0   -4637.1599 
    2800            0   -17140.597   -4637.3143            0   -4637.3143 
    2900            0   -17131.656   -4637.4608            0   -4637.4608 
    3000            0   -17118.785   -4637.6011            0   -4637.6011 
    3100            0   -17136.046   -4637.7353            0   -4637.7353 
    3200            0    -17174.61   -4637.8633            0   -4637.8633 
    3300            0   -17208.865   -4637.9857            0   -4637.9857 
    3400            0   -17230.627    -4638.103            0    -4638.103 
    3500            0   -17223.333   -4638.2159            0   -4638.2159 
    3600            0   -17230.282   -4638.3247            0   -4638.3247 
    3700            0   -17242.774   -4638.4297            0   -4638.4297 
    3800            0   -17252.205   -4638.5312            0   -4638.5312 
    3900            0   -17250.444   -4638.6294            0   -4638.6294 
    4000            0   -17263.159   -4638.7246            0   -4638.7246 
    4100            0    -17273.21    -4638.817            0    -4638.817 
    4200            0    -17297.99   -4638.9069            0   -4638.9069 
    4300            0   -17328.874   -4638.9945            0   -4638.9945 
    4400            0   -17323.255   -4639.0799            0   -4639.0799 
    4500            0   -17324.177   -4639.1632            0   -4639.1632 
    4600            0   -17314.673   -4639.2446            0   -4639.2446 
    4700            0   -17311.946    -4639.324            0    -4639.324 
[...]
      attributes: full, newton off, cut 10.30032
      pair build: full/bin/atomonly
      stencil: full/bin/3d
      bin: standard
Per MPI rank memory allocation (min/avg/max) = 5.403 | 5.403 | 5.403 Mbytes
Step Temp Press PotEng KinEng TotEng 
       0            0   -19555.414   -4598.7396            0   -4598.7396 
     100 1.6397422e-140   -20253.683   -4602.1347 4.3386844e-141   -4602.1347 
     200 6.3700793e-247   -20826.387   -4604.7375 1.6854944e-247   -4604.7375 
     300            0   -21301.582   -4606.7674            0   -4606.7674 
     400            0   -21699.589   -4608.3766            0   -4608.3766 
     500            0   -22035.566   -4609.6727            0   -4609.6727 
     600            0   -22320.985   -4610.7329            0   -4610.7329 
     700            0   -22564.659   -4611.6128            0   -4611.6128 
     800            0   -22814.866   -4612.3542            0   -4612.3542 
     900            0   -23085.422   -4612.9916            0   -4612.9916 
    1000            0   -23322.463   -4613.5454            0   -4613.5454 
    1100            0   -23454.855   -4614.0309            0   -4614.0309 
    1200            0   -23601.318   -4614.4598            0   -4614.4598 
    1300            0   -23789.139   -4614.8433            0   -4614.8433 
    1400            0   -23896.221   -4615.1912            0   -4615.1912 
    1500            0   -24031.694   -4615.5076            0   -4615.5076 
    1600            0   -24139.064   -4615.7987            0   -4615.7987 
    1700            0   -24244.342   -4616.0677            0   -4616.0677 
    1800            0    -24431.33   -4616.3195            0   -4616.3195 
    1900            0   -24576.792   -4616.5582            0   -4616.5582 
    2000            0   -24648.312   -4616.7833            0   -4616.7833 
    2100            0   -24903.116   -4616.9984            0   -4616.9984 
    2200            0   -25027.305   -4617.2056            0   -4617.2056 
    2300            0   -25170.391   -4617.4055            0   -4617.4055 
    2400            0   -25374.194   -4617.5994            0   -4617.5994 
    2500            0   -25490.124   -4617.7891            0   -4617.7891 
    2600            0   -25518.572   -4617.9722            0   -4617.9722 
    2700            0   -25501.264   -4618.1481            0   -4618.1481 
    2800            0   -25496.501   -4618.3175            0   -4618.3175 
    2900            0   -25512.933   -4618.4816            0   -4618.4816 
    3000            0   -25501.172   -4618.6412            0   -4618.6412 
    3100            0   -25494.634   -4618.7966            0   -4618.7966 
    3200            0   -25485.298   -4618.9483            0   -4618.9483 
    3300            0   -25506.513   -4619.0969            0   -4619.0969 
    3400            0    -25492.28   -4619.2428            0   -4619.2428 
    3500            0    -25508.97   -4619.3863            0   -4619.3863 
    3600            0   -25589.912   -4619.5285            0   -4619.5285 
    3700            0    -25577.91   -4619.6694            0   -4619.6694 
    3800            0   -25613.769   -4619.8083            0   -4619.8083 
    3900            0    -25689.43   -4619.9471            0   -4619.9471 
    4000            0   -25705.597   -4620.0846            0   -4620.0846 
    4100            0   -25728.582    -4620.221            0    -4620.221 
    4200            0   -25758.458   -4620.3565            0   -4620.3565 
    4300            0   -25836.745   -4620.4919            0   -4620.4919 
    4400            0   -25814.513   -4620.6266            0   -4620.6266 
    4500            0   -25799.448     -4620.76            0     -4620.76 
    4600            0   -25882.694   -4620.8929            0   -4620.8929 
    4700            0   -25890.507   -4621.0253            0   -4621.0253 
    4800            0   -25889.146   -4621.1571            0   -4621.1571 
    4900            0   -25853.778   -4621.2875            0   -4621.2875 
    5000            0   -25842.369   -4621.4168            0   -4621.4168 
    5100            0   -25788.764   -4621.5447            0   -4621.5447 
    5200            0   -25742.703   -4621.6712            0   -4621.6712 
    5300            0   -25687.671   -4621.7962            0   -4621.7962 
    5400            0   -25640.295   -4621.9201            0   -4621.9201 
    5500            0   -25584.053   -4622.0426            0   -4622.0426 
    5600            0   -25552.098   -4622.1641            0   -4622.1641 
    5700            0   -25536.148   -4622.2848            0   -4622.2848 
    5800            0   -25494.947   -4622.4051            0   -4622.4051 
    5900            0   -25461.571   -4622.5243            0   -4622.5243 
    6000            0   -25436.064   -4622.6428            0   -4622.6428 
    6100            0   -25385.347   -4622.7605            0   -4622.7605 
    6200            0   -25326.021   -4622.8771            0   -4622.8771 
    6300            0   -25274.683   -4622.9928            0   -4622.9928 
    6400            0   -25256.168   -4623.1078            0   -4623.1078 
    6500            0   -25237.365   -4623.2225            0   -4623.2225 
    6600            0   -25168.646   -4623.3362            0   -4623.3362 
    6700            0   -25149.386   -4623.4492            0   -4623.4492 
    6800            0   -25121.675   -4623.5619            0   -4623.5619 
    6900            0   -25077.236   -4623.6739            0   -4623.6739 
    7000            0   -25032.561   -4623.7852            0   -4623.7852 
    7100            0   -25020.784    -4623.896            0    -4623.896 
    7200            0   -24984.038   -4624.0063            0   -4624.0063 
    7300            0   -24938.919    -4624.116            0    -4624.116 
    7400            0   -24918.548   -4624.2253            0   -4624.2253 
    7500            0   -24898.073   -4624.3343            0   -4624.3343 
    7600            0   -24885.803   -4624.4431            0   -4624.4431 
    7700            0   -24856.943   -4624.5516            0   -4624.5516 
    7800            0   -24852.886   -4624.6596            0   -4624.6596 
    7900            0   -24799.151   -4624.7675            0   -4624.7675 
    8000            0   -24786.795    -4624.875            0    -4624.875 
    8100            0   -24741.338   -4624.9819            0   -4624.9819 
    8200            0   -24695.897   -4625.0883            0   -4625.0883 
    8300            0   -24642.185   -4625.1941            0   -4625.1941 
    8400            0   -24621.532   -4625.2995            0   -4625.2995 
    8500            0   -24576.031   -4625.4044            0   -4625.4044 
    8600            0   -24547.143   -4625.5089            0   -4625.5089 
    8700            0   -24493.475   -4625.6128            0   -4625.6128 
    8800            0   -24472.969   -4625.7162            0   -4625.7162 
    8900            0   -24444.257   -4625.8193            0   -4625.8193 
    9000            0   -24440.364   -4625.9222            0   -4625.9222 
    9100            0   -24428.224   -4626.0249            0   -4626.0249 
    9200            0   -24391.271   -4626.1273            0   -4626.1273 
    9300            0   -24362.693   -4626.2293            0   -4626.2293 
    9400            0   -24317.649   -4626.3309            0   -4626.3309 
    9500            0   -24297.526   -4626.4321            0   -4626.4321 
    9600            0   -24244.359   -4626.5329            0   -4626.5329 
    9700            0   -24174.736    -4626.633            0    -4626.633 
    9800            0   -24138.276   -4626.7326            0   -4626.7326 
    9900            0   -24101.932   -4626.8318            0   -4626.8318 
   10000            0   -24065.715   -4626.9306            0   -4626.9306 
Loop time of 32.1054 on 1 procs for 10000 steps with 2048 atoms

Performance: 26.911 ns/day, 0.892 hours/ns, 311.474 timesteps/s
99.8% CPU use with 1 MPI tasks x 1 OpenMP threads

MPI task timing breakdown:
Section |  min time  |  avg time  |  max time  |%varavg| %total
---------------------------------------------------------------
Pair    | 31.552     | 31.552     | 31.552     |   0.0 | 98.28
Neigh   | 0          | 0          | 0          |   0.0 |  0.00
Comm    | 0.0015938  | 0.0015938  | 0.0015938  |   0.0 |  0.00
Output  | 0.19508    | 0.19508    | 0.19508    |   0.0 |  0.61
Modify  | 0.30227    | 0.30227    | 0.30227    |   0.0 |  0.94
Other   |            | 0.05484    |            |       |  0.17

Nlocal:        2048.00 ave        2048 max        2048 min
Histogram: 1 0 0 0 0 0 0 0 0 0
Nghost:         0.00000 ave           0 max           0 min
Histogram: 1 0 0 0 0 0 0 0 0 0
Neighs:         0.00000 ave           0 max           0 min
Histogram: 1 0 0 0 0 0 0 0 0 0
FullNghs:      349616.0 ave      349616 max      349616 min
Histogram: 1 0 0 0 0 0 0 0 0 0

Total # of neighbors = 349616
Ave neighs/atom = 170.71094
Neighbor list builds = 0
Dangerous builds = 0
unfix 1
clear
OMP_NUM_THREADS environment is not set. Defaulting to 1 thread. (src/comm.cpp:94)
  using 1 OpenMP thread(s) per MPI task
variable lattice_spacing equal ${lattice_spacing}+0.05
variable lattice_spacing equal 4.2+0.05
next a
jump SELF loop1
variable a loop 10
print "Lattice_spacing is ${lattice_spacing}"
Lattice_spacing is 4.25

units metal
boundary f f f
atom_style atomic

lattice fcc ${lattice_spacing} origin 0 0 0
lattice fcc 4.25 origin 0 0 0
Lattice spacing in x,y,z = 4.2500000 4.2500000 4.2500000
region r1 block 0 8 0 8 0 8 units lattice side in
create_box 1 r1
Created orthogonal box = (0.0000000 0.0000000 0.0000000) to (34.000000 34.000000 34.000000)
  1 by 1 by 1 MPI processor grid
#if "$a == 1" then "create_box 1 region$a"
#if "$a > 1" then "delete_atoms group 1" #"change_box 1 boundary p p f units lattice" #"reset_timestep 0"
mass 1 26.98
create_atoms 1 region r1
Created 2048 atoms
  create_atoms CPU = 0.000 seconds
group 1 type 1
2048 atoms in group 1
pair_style kim Morse_Shifted_GirifalcoWeizer_1959LowCutoff_Al__MO_411898953661_004
pair_coeff * * Al
neighbor 2.5 bin
neigh_modify every 1 delay 1
timestep 0.001
dump 1 all atom 100 dump.Al_${lattice_spacing}
dump 1 all atom 100 dump.Al_4.25
thermo 100
thermo_style custom step temp press pe ke etotal
fix 1 all nvt temp 0.0001 0.0001 0.01
run 10000
Neighbor list info ...
  update every 1 steps, delay 1 steps, check yes
  max neighbors/atom: 2000, page size: 100000
  master list distance cutoff = 10.30032
  ghost atom cutoff = 10.30032
  binsize = 5.15016, bins = 7 7 7
  1 neighbor lists, perpetual/occasional/extra = 1 0 0
  (1) pair kim, perpetual
      attributes: full, newton off, cut 10.30032
      pair build: full/bin/atomonly
      stencil: full/bin/3d
      bin: standard
Per MPI rank memory allocation (min/avg/max) = 5.403 | 5.403 | 5.403 Mbytes
Step Temp Press PotEng KinEng TotEng 
       0            0   -36030.891   -4574.7039            0   -4574.7039 
     100 2.6296181e-103   -36424.367   -4577.1857 6.9578516e-104   -4577.1857 
     200 5.3127324e-184   -36736.391   -4579.1616 1.4057252e-184   -4579.1616 
     300 2.3032908e-249    -36984.16   -4580.7637 6.0944043e-250   -4580.7637 
     400 3.3162411e-303   -37180.252   -4582.0851 8.7746253e-304   -4582.0851 
     500            0   -37334.294   -4583.1934            0   -4583.1934 
     600            0   -37453.743   -4584.1384            0   -4584.1384 
     700            0   -37544.441    -4584.957            0    -4584.957 
     800            0   -37611.012   -4585.6767            0   -4585.6767 
     900            0   -37657.163   -4586.3181            0   -4586.3181 
    1000            0   -37685.892   -4586.8971            0   -4586.8971 
    1100            0   -37699.651   -4587.4258            0   -4587.4258 
    1200            0   -37700.464   -4587.9135            0   -4587.9135 
    1300            0   -37690.015   -4588.3674            0   -4588.3674 
    1400            0   -37669.719   -4588.7934            0   -4588.7934 
    1500            0   -37640.774   -4589.1959            0   -4589.1959 
    1600            0   -37604.201   -4589.5786            0   -4589.5786 
    1700            0   -37560.874   -4589.9445            0   -4589.9445 
    1800            0   -37511.549   -4590.2959            0   -4590.2959 
    1900            0   -37456.882   -4590.6348            0   -4590.6348 
    2000            0   -37397.444   -4590.9628            0   -4590.9628 
    2100            0   -37333.737   -4591.2812            0   -4591.2812 
    2200            0   -37266.202   -4591.5911            0   -4591.5911 
    2300            0   -37195.227   -4591.8934            0   -4591.8934 
    2400            0   -37121.161   -4592.1889            0   -4592.1889 
    2500            0   -37044.309   -4592.4784            0   -4592.4784 
    2600            0   -36964.948   -4592.7623            0   -4592.7623 
    2700            0   -36883.323   -4593.0411            0   -4593.0411 
    2800            0   -36799.656   -4593.3152            0   -4593.3152 
    2900            0   -36714.146   -4593.5851            0   -4593.5851 
    3000            0   -36626.972    -4593.851            0    -4593.851 
    3100            0   -36538.298   -4594.1131            0   -4594.1131 
    3200            0   -36448.271   -4594.3718            0   -4594.3718 
    3300            0   -36357.024   -4594.6272            0   -4594.6272 
    3400            0   -36264.681   -4594.8794            0   -4594.8794 
    3500            0   -36171.352   -4595.1288            0   -4595.1288 
    3600            0   -36077.138   -4595.3754            0   -4595.3754 
    3700            0   -35982.134   -4595.6193            0   -4595.6193 
    3800            0   -35886.424   -4595.8606            0   -4595.8606 
    3900            0   -35790.086   -4596.0996            0   -4596.0996 
    4000            0   -35693.193   -4596.3361            0   -4596.3361 
    4100            0   -35595.809   -4596.5704            0   -4596.5704 
    4200            0   -35497.997   -4596.8025            0   -4596.8025 
    4300            0   -35399.811   -4597.0325            0   -4597.0325 
    4400            0   -35301.304   -4597.2604            0   -4597.2604 
    4500            0   -35202.524   -4597.4864            0   -4597.4864 
    4600            0   -35103.514   -4597.7103            0   -4597.7103 
    4700            0   -35004.316   -4597.9324            0   -4597.9324 
    4800            0   -34904.967   -4598.1527            0   -4598.1527 
    4900            0   -34805.502   -4598.3711            0   -4598.3711 
    5000            0   -34705.954   -4598.5877            0   -4598.5877 
    5100            0   -34606.353   -4598.8027            0   -4598.8027 
    5200            0   -34506.726   -4599.0159            0   -4599.0159 
    5300            0     -34407.1   -4599.2275            0   -4599.2275 
    5400            0   -34307.499   -4599.4374            0   -4599.4374 
    5500            0   -34207.945   -4599.6458            0   -4599.6458 
    5600            0   -34108.459   -4599.8525            0   -4599.8525 
    5700            0   -34009.059   -4600.0577            0   -4600.0577 
    5800            0   -33909.765   -4600.2614            0   -4600.2614 
    5900            0   -33810.593   -4600.4637            0   -4600.4637 
    6000            0   -33711.558   -4600.6644            0   -4600.6644 
    6100            0   -33652.528   -4600.8642            0   -4600.8642 
    6200            0    -33561.64   -4601.0629            0   -4601.0629 
    6300            0   -33470.867   -4601.2602            0   -4601.2602 
    6400            0   -33372.242   -4601.4562            0   -4601.4562 
    6500            0   -33281.743   -4601.6509            0   -4601.6509 
    6600            0   -33183.423   -4601.8442            0   -4601.8442 
    6700            0   -33149.132    -4602.037            0    -4602.037 
    6800            0   -33067.017   -4602.2291            0   -4602.2291 
    6900            0   -32969.079   -4602.4199            0   -4602.4199 
    7000            0   -32887.257   -4602.6095            0   -4602.6095 
    7100            0   -32789.631   -4602.7979            0   -4602.7979 
    7200            0   -32692.196   -4602.9849            0   -4602.9849 
    7300            0    -32610.91   -4603.1708            0   -4603.1708 
    7400            0   -32521.831   -4603.3556            0   -4603.3556 
    7500            0   -32432.951   -4603.5391            0   -4603.5391 
    7600            0   -32344.253   -4603.7216            0   -4603.7216 
    7700            0   -32255.768    -4603.903            0    -4603.903 
    7800            0   -32159.515   -4604.0832            0   -4604.0832 
    7900            0   -32063.502   -4604.2621            0   -4604.2621 
    8000            0   -31967.739   -4604.4398            0   -4604.4398 
    8100            0   -31872.235   -4604.6164            0   -4604.6164 
    8200            0   -31776.998   -4604.7917            0   -4604.7917 
    8300            0   -31690.016    -4604.966            0    -4604.966 
    8400            0   -31619.262   -4605.1393            0   -4605.1393 
    8500            0   -31548.738   -4605.3119            0   -4605.3119 
    8600            0   -31518.354   -4605.4841            0   -4605.4841 
    8700            0   -31464.181   -4605.6562            0   -4605.6562 
    8800            0   -31394.221   -4605.8276            0   -4605.8276 
    8900            0   -31316.458   -4605.9982            0   -4605.9982 
    9000            0   -31246.883   -4606.1678            0   -4606.1678 
    9100            0   -31177.504   -4606.3367            0   -4606.3367 
    9200            0   -31108.341   -4606.5048            0   -4606.5048 
    9300            0    -31071.38   -4606.6726            0   -4606.6726 
    9400            0   -31002.701   -4606.8402            0   -4606.8402 
    9500            0   -30918.267   -4607.0068            0   -4607.0068 
    9600            0   -30857.985   -4607.1726            0   -4607.1726 
    9700            0   -30773.929   -4607.3375            0   -4607.3375 
    9800            0   -30714.027   -4607.5016            0   -4607.5016 
    9900            0   -30646.319    -4607.665            0    -4607.665 
   10000            0   -30570.817   -4607.8276            0   -4607.8276 
Loop time of 29.401 on 1 procs for 10000 steps with 2048 atoms

Performance: 29.387 ns/day, 0.817 hours/ns, 340.125 timesteps/s
99.9% CPU use with 1 MPI tasks x 1 OpenMP threads

MPI task timing breakdown:
Section |  min time  |  avg time  |  max time  |%varavg| %total
---------------------------------------------------------------
Pair    | 28.847     | 28.847     | 28.847     |   0.0 | 98.11
Neigh   | 0          | 0          | 0          |   0.0 |  0.00
Comm    | 0.0015698  | 0.0015698  | 0.0015698  |   0.0 |  0.01
Output  | 0.18372    | 0.18372    | 0.18372    |   0.0 |  0.62
Modify  | 0.31451    | 0.31451    | 0.31451    |   0.0 |  1.07
Other   |            | 0.05442    |            |       |  0.19

Nlocal:        2048.00 ave        2048 max        2048 min
Histogram: 1 0 0 0 0 0 0 0 0 0
Nghost:         0.00000 ave           0 max           0 min
Histogram: 1 0 0 0 0 0 0 0 0 0
Neighs:         0.00000 ave           0 max           0 min
Histogram: 1 0 0 0 0 0 0 0 0 0
FullNghs:      321392.0 ave      321392 max      321392 min
Histogram: 1 0 0 0 0 0 0 0 0 0

Total # of neighbors = 321392
Ave neighs/atom = 156.92969
Neighbor list builds = 0
Dangerous builds = 0
unfix 1
clear
OMP_NUM_THREADS environment is not set. Defaulting to 1 thread. (src/comm.cpp:94)
  using 1 OpenMP thread(s) per MPI task
variable lattice_spacing equal ${lattice_spacing}+0.05
variable lattice_spacing equal 4.25+0.05
next a
jump SELF loop1
variable a delete
print "done..."
done...
Total wall time: 0:06:12
