LAMMPS (24 Dec 2020)
OMP_NUM_THREADS environment is not set. Defaulting to 1 thread. (src/comm.cpp:94)
  using 1 OpenMP thread(s) per MPI task
variable t equal 0.0
label loop1
variable a loop 20
variable t equal $t+100
variable t equal 0+100
print "Temperature is $t"
Temperature is 100
label loop2
variable b index "Morse_Shifted_GirifalcoWeizer_1959HighCutoff_Ni__MO_381861218831_004" "Morse_Shifted_GirifalcoWeizer_1959LowCutoff_Ni__MO_322509103239_004" "Morse_Shifted_GirifalcoWeizer_1959MedCutoff_Ni__MO_758825945924_004"
variable c index "HighCutoff" "LowCutoff" "MedCutoff"
units metal
boundary p p p
atom_style atomic
lattice custom 3.5238 a1 1.0 0.0 0.0 a2 0.0 1.0 0.0 a3 0.0 0.0 1.0 basis 0.25 0.25 0.25 basis 0.25 0.75 0.75 basis 0.75 0.25 0.75 basis 0.75 0.75 0.25
Lattice spacing in x,y,z = 3.5238000 3.5238000 3.5238000
region 1 sphere 20.0 20.0 20.0 5.0
region 2 block 0.0 40.0 0.0 40.0 0.0 40.0
create_box 1 2
Created orthogonal box = (0.0000000 0.0000000 0.0000000) to (140.95200 140.95200 140.95200)
  2 by 1 by 2 MPI processor grid
mass 1 58.6934
create_atoms 1 region 1
Created 2112 atoms
  create_atoms CPU = 0.001 seconds
group 1 type 1
2112 atoms in group 1
pair_style kim $b
pair_style kim Morse_Shifted_GirifalcoWeizer_1959HighCutoff_Ni__MO_381861218831_004
pair_coeff * * Ni
neighbor 2.5 bin
neigh_modify every 1 delay 1
dump 1 all atom 100 dump.Ni_$t_$c
dump 1 all atom 100 dump.Ni_100_$c
dump 1 all atom 100 dump.Ni_100_HighCutoff
compute 1 1 pe/atom
compute 2 1 ke/atom
compute ape 1 reduce ave c_1
compute ake 1 reduce ave c_2
thermo_style custom step temp c_ape c_ake
thermo 100
fix 1 1 nvt temp $t $t 0.01 fixedpoint 20.0 20.0 20.0
fix 1 1 nvt temp 100 $t 0.01 fixedpoint 20.0 20.0 20.0
fix 1 1 nvt temp 100 100 0.01 fixedpoint 20.0 20.0 20.0
timestep 0.001
run 20000
Neighbor list info ...
  update every 1 steps, delay 1 steps, check yes
  max neighbors/atom: 2000, page size: 100000
  master list distance cutoff = 12.25476
  ghost atom cutoff = 12.25476
  binsize = 6.12738, bins = 24 24 24
  1 neighbor lists, perpetual/occasional/extra = 1 0 0
  (1) pair kim, perpetual
      attributes: full, newton off, cut 12.25476
      pair build: full/bin/atomonly
      stencil: full/bin/3d
      bin: standard
Per MPI rank memory allocation (min/avg/max) = 5.117 | 5.117 | 5.117 Mbytes
Step Temp c_ape c_ake 
       0            0   -3.6050352            0 
     100    97.767862   -3.6306787  0.012631504 
     200    100.45616   -3.6231029   0.01297883 
     300    103.04682   -3.6192742   0.01331354 
     400    102.80706   -3.6279281  0.013282563 
     500    94.056529   -3.6235575  0.012152004 
     600    102.40003   -3.6213755  0.013229976 
     700    97.516653   -3.6273131  0.012599048 
     800    102.04765   -3.6252436  0.013184448 
     900    98.301381   -3.6231212  0.012700435 
    1000    98.485727   -3.6281798  0.012724252 
    1100     97.58154   -3.6204722  0.012607432 
    1200     104.9668   -3.6253228  0.013561599 
    1300    99.671801   -3.6280483  0.012877491 
    1400    96.234779    -3.624807  0.012433432 
    1500    110.03372   -3.6233337  0.014216241 
    1600    99.715009   -3.6273235  0.012883074 
    1700    104.81948   -3.6236713  0.013542566 
    1800    101.98211   -3.6262898  0.013175981 
    1900    99.580841   -3.6224586  0.012865739 
    2000    101.70838   -3.6257746  0.013140615 
    2100    100.66767   -3.6260332  0.013006157 
    2200    99.633474   -3.6238427   0.01287254 
    2300    106.01477   -3.6255563  0.013696996 
    2400    100.19555   -3.6236538  0.012945158 
    2500    98.715017   -3.6244129  0.012753876 
    2600    102.91236   -3.6249132  0.013296169 
    2700    100.34194   -3.6247317  0.012964072 
    2800    97.275953   -3.6250903   0.01256795 
    2900    96.418308   -3.6251061  0.012457143 
    3000    100.46198   -3.6241764  0.012979581 
    3100    91.995129   -3.6269939  0.011885673 
    3200     105.2513   -3.6230622  0.013598356 
    3300    99.430082   -3.6249091  0.012846261 
    3400    96.056703   -3.6255435  0.012410424 
    3500    103.73497   -3.6261851  0.013402448 
    3600    102.55947   -3.6240799  0.013250576 
    3700    104.51804   -3.6254543  0.013503621 
    3800    92.925777   -3.6236552  0.012005912 
    3900    102.77285   -3.6255381  0.013278144 
    4000    99.963663   -3.6228757    0.0129152 
    4100    96.589489   -3.6241943   0.01247926 
    4200    94.220117   -3.6267249  0.012173139 
    4300    95.531991   -3.6246281  0.012342632 
    4400    99.574482   -3.6271143  0.012864918 
    4500    102.37284   -3.6255758  0.013226462 
    4600    97.902923   -3.6250121  0.012648954 
    4700    106.59607   -3.6238181  0.013772099 
    4800    103.29475   -3.6232103  0.013345572 
    4900    103.67248   -3.6275194  0.013394375 
    5000    102.35753   -3.6241568  0.013224485 
    5100    103.21994   -3.6234738  0.013335907 
    5200     95.69464   -3.6256217  0.012363646 
    5300    103.34943   -3.6248325  0.013352637 
    5400     96.30801   -3.6246461  0.012442893 
    5500    96.551211   -3.6223183  0.012474314 
    5600    102.80309    -3.625586  0.013282051 
    5700    97.397325   -3.6250979  0.012583631 
    5800    104.19188   -3.6248948   0.01346148 
    5900    101.13822   -3.6246719  0.013066951 
    6000    95.682451   -3.6241333  0.012362072 
    6100    101.08877   -3.6253844  0.013060562 
    6200    104.03698   -3.6226209  0.013441468 
    6300    104.35021   -3.6245375  0.013481936 
    6400    95.570861   -3.6246539  0.012347654 
    6500    99.435859   -3.6255089  0.012847008 
    6600    101.70732   -3.6244301  0.013140478 
    6700    98.398777   -3.6258208  0.012713018 
    6800    96.314094   -3.6252602  0.012443679 
    6900    108.48905   -3.6255777  0.014016671 
    7000    104.84061   -3.6246549  0.013545295 
    7100    99.146008   -3.6266671  0.012809559 
    7200    103.53829   -3.6247703  0.013377038 
    7300    97.924483   -3.6247928   0.01265174 
    7400    98.933435    -3.626581  0.012782095 
    7500    100.64207   -3.6252989  0.013002849 
    7600    100.87553   -3.6249277  0.013033012 
    7700    102.96064    -3.623291  0.013302406 
    7800     105.0485   -3.6262417  0.013572155 
    7900    100.75627   -3.6256351  0.013017604 
    8000    97.362993   -3.6238224  0.012579196 
    8100    97.120169   -3.6249295  0.012547823 
    8200    97.410591   -3.6267494  0.012585345 
    8300     101.7342   -3.6241551  0.013143951 
    8400    95.571962   -3.6231451  0.012347796 
    8500     97.96805   -3.6230789  0.012657368 
    8600    96.736817   -3.6249227  0.012498294 
    8700    97.789568     -3.62564  0.012634309 
    8800    102.50413    -3.623391  0.013243425 
    8900    106.61831   -3.6258908  0.013774973 
    9000    101.54494   -3.6258634  0.013119499 
    9100    100.49438   -3.6225367  0.012983767 
    9200    101.09117   -3.6234737  0.013060872 
    9300    96.021067   -3.6253491   0.01240582 
    9400    100.80774   -3.6254546  0.013024253 
    9500    98.929357   -3.6240264  0.012781568 
    9600    100.83655   -3.6253856  0.013027976 
    9700    102.47581   -3.6249194  0.013239766 
    9800    91.564975   -3.6249425  0.011830098 
    9900    97.099954   -3.6230815  0.012545211 
   10000    99.004531   -3.6254871  0.012791281 
   10100    100.56335   -3.6266914  0.012992678 
   10200    101.84074   -3.6256685  0.013157716 
   10300    104.28226   -3.6233083  0.013473158 
   10400    103.03194   -3.6258655  0.013311618 
   10500     92.70683   -3.6241711  0.011977624 
   10600    98.182795    -3.624885  0.012685113 
   10700    101.28607   -3.6251584  0.013086053 
   10800     98.05995   -3.6252718  0.012669242 
   10900    98.511668   -3.6255078  0.012727603 
   11000    103.90855   -3.6242621  0.013424874 
   11100    95.281748   -3.6259739  0.012310301 
   11200    98.980387   -3.6254635  0.012788161 
   11300    102.24828   -3.6227945   0.01321037 
   11400    95.396281   -3.6243435  0.012325099 
   11500     105.0887   -3.6253533  0.013577349 
   11600    99.077941   -3.6268746  0.012800765 
   11700    101.29499   -3.6244731  0.013087206 
   11800    100.41761   -3.6257035  0.012973849 
   11900    100.35707   -3.6259517  0.012966027 
   12000    98.341023   -3.6218591  0.012705556 
   12100    94.235821   -3.6247126  0.012175168 
   12200    103.35332   -3.6259941  0.013353139 
   12300    102.96496   -3.6254761  0.013302964 
   12400    93.072026   -3.6256863  0.012024807 
   12500    97.181036   -3.6241792  0.012555687 
   12600    98.886055   -3.6249103  0.012775974 
   12700    101.14003   -3.6251154  0.013067185 
   12800    95.861898   -3.6222872  0.012385256 
   12900    103.90432   -3.6251495  0.013424328 
   13000    98.422666    -3.625516  0.012716104 
   13100    100.06762   -3.6259623   0.01292863 
   13200    99.796748   -3.6235357  0.012893634 
   13300    101.75301    -3.625072  0.013146381 
   13400      97.9756   -3.6253042  0.012658344 
   13500    109.61897   -3.6251724  0.014162655 
   13600    93.389014   -3.6242769  0.012065762 
   13700    96.720832   -3.6251151  0.012496229 
   13800    103.05232   -3.6249546  0.013314251 
   13900    96.021939   -3.6236222  0.012405933 
   14000    102.46585   -3.6266867  0.013238479 
   14100    101.84782   -3.6245845  0.013158631 
   14200    98.036569   -3.6247418  0.012666221 
   14300    99.951635   -3.6250786  0.012913646 
   14400    99.610941   -3.6249443  0.012869628 
   14500    94.914931   -3.6260377  0.012262909 
   14600    93.823008   -3.6239739  0.012121833 
   14700    105.47398   -3.6257211  0.013627127 
   14800    100.45638   -3.6261004  0.012978859 
   14900    95.181175   -3.6239902  0.012297307 
   15000    103.21638   -3.6248557  0.013335447 
   15100    102.69115   -3.6231253  0.013267587 
   15200    97.504494   -3.6265396  0.012597478 
   15300    102.11238   -3.6242357  0.013192811 
   15400    101.25194   -3.6239459  0.013081643 
   15500    97.786029   -3.6272164  0.012633852 
   15600    98.291021   -3.6248398  0.012699096 
   15700     99.59623   -3.6231691  0.012867728 
   15800    95.368661   -3.6238898   0.01232153 
   15900     103.6547   -3.6270359  0.013392077 
   16000    97.754436   -3.6253533   0.01262977 
   16100    101.02503   -3.6241603  0.013052327 
   16200    110.31407   -3.6252881  0.014252461 
   16300    98.495399   -3.6253474  0.012725501 
   16400     103.6114     -3.62461  0.013386484 
   16500    104.07927   -3.6233433  0.013446932 
   16600    96.643527   -3.6258088  0.012486241 
   16700    98.666153   -3.6258003  0.012747563 
   16800    98.196764   -3.6244748  0.012686918 
   16900    102.33235   -3.6249327  0.013221232 
   17000    91.736079   -3.6249598  0.011852204 
   17100    100.93416   -3.6237599  0.013040587 
   17200    100.34706   -3.6244007  0.012964733 
   17300    93.711685   -3.6247411  0.012107451 
   17400    102.53147   -3.6262226  0.013246957 
   17500    102.25936   -3.6248914  0.013211801 
   17600    99.058405   -3.6259527  0.012798241 
   17700    102.85509   -3.6248717  0.013288769 
   17800    99.360808    -3.624747  0.012837311 
   17900    101.35224   -3.6256452  0.013094603 
   18000    89.304848   -3.6231283  0.011538092 
   18100    96.875839   -3.6268681  0.012516256 
   18200    98.264768   -3.6251434  0.012695704 
   18300    104.19061   -3.6242465  0.013461317 
   18400    106.19679   -3.6265934  0.013720513 
   18500    98.648687   -3.6250667  0.012745306 
   18600    94.355868   -3.6236988  0.012190678 
   18700    99.604456   -3.6251733   0.01286879 
   18800    99.204776   -3.6247546  0.012817152 
   18900    94.461773   -3.6266915  0.012204361 
   19000    98.053729   -3.6233256  0.012668438 
   19100    99.382387   -3.6250476  0.012840099 
   19200    93.021155   -3.6263574  0.012018235 
   19300    102.22507   -3.6246246  0.013207371 
   19400    97.850653   -3.6246883  0.012642201 
   19500    99.028026    -3.624394  0.012794316 
   19600     98.95982   -3.6258904  0.012785504 
   19700    96.142193   -3.6238919   0.01242147 
   19800    101.87188   -3.6259931  0.013161739 
   19900    106.83915    -3.626474  0.013803505 
   20000    91.987006   -3.6249141  0.011884624 
Loop time of 149.749 on 4 procs for 20000 steps with 2112 atoms

Performance: 11.539 ns/day, 2.080 hours/ns, 133.557 timesteps/s
99.6% CPU use with 4 MPI tasks x 1 OpenMP threads

MPI task timing breakdown:
Section |  min time  |  avg time  |  max time  |%varavg| %total
---------------------------------------------------------------
Pair    | 107.1      | 126.59     | 147.1      | 170.9 | 84.53
Neigh   | 0          | 0          | 0          |   0.0 |  0.00
Comm    | 1.644      | 22.131     | 41.595     | 409.3 | 14.78
Output  | 0.3579     | 0.35855    | 0.36032    |   0.2 |  0.24
Modify  | 0.31919    | 0.43695    | 0.55632    |  12.8 |  0.29
Other   |            | 0.2364     |            |       |  0.16

Nlocal:        528.000 ave         528 max         528 min
Histogram: 4 0 0 0 0 0 0 0 0 0
Nghost:        1324.00 ave        1324 max        1324 min
Histogram: 4 0 0 0 0 0 0 0 0 0
Neighs:         0.00000 ave           0 max           0 min
Histogram: 4 0 0 0 0 0 0 0 0 0
FullNghs:      224586.0 ave      224586 max      224586 min
Histogram: 4 0 0 0 0 0 0 0 0 0

Total # of neighbors = 898344
Ave neighs/atom = 425.35227
Neighbor list builds = 0
Dangerous builds = 0
write_data Ni_$t_$c.data
write_data Ni_100_$c.data
write_data Ni_100_HighCutoff.data
System init for write_data ...
clear
OMP_NUM_THREADS environment is not set. Defaulting to 1 thread. (src/comm.cpp:94)
  using 1 OpenMP thread(s) per MPI task
next b
next c
jump SELF loop2
variable b index "Morse_Shifted_GirifalcoWeizer_1959HighCutoff_Ni__MO_381861218831_004" "Morse_Shifted_GirifalcoWeizer_1959LowCutoff_Ni__MO_322509103239_004" "Morse_Shifted_GirifalcoWeizer_1959MedCutoff_Ni__MO_758825945924_004"
variable c index "HighCutoff" "LowCutoff" "MedCutoff"
units metal
boundary p p p
atom_style atomic
lattice custom 3.5238 a1 1.0 0.0 0.0 a2 0.0 1.0 0.0 a3 0.0 0.0 1.0 basis 0.25 0.25 0.25 basis 0.25 0.75 0.75 basis 0.75 0.25 0.75 basis 0.75 0.75 0.25
Lattice spacing in x,y,z = 3.5238000 3.5238000 3.5238000
region 1 sphere 20.0 20.0 20.0 5.0
region 2 block 0.0 40.0 0.0 40.0 0.0 40.0
create_box 1 2
Created orthogonal box = (0.0000000 0.0000000 0.0000000) to (140.95200 140.95200 140.95200)
  2 by 1 by 2 MPI processor grid
mass 1 58.6934
create_atoms 1 region 1
Created 2112 atoms
  create_atoms CPU = 0.001 seconds
group 1 type 1
2112 atoms in group 1
pair_style kim $b
pair_style kim Morse_Shifted_GirifalcoWeizer_1959LowCutoff_Ni__MO_322509103239_004
pair_coeff * * Ni
neighbor 2.5 bin
neigh_modify every 1 delay 1
dump 1 all atom 100 dump.Ni_$t_$c
dump 1 all atom 100 dump.Ni_100_$c
dump 1 all atom 100 dump.Ni_100_LowCutoff
compute 1 1 pe/atom
compute 2 1 ke/atom
compute ape 1 reduce ave c_1
compute ake 1 reduce ave c_2
thermo_style custom step temp c_ape c_ake
thermo 100
fix 1 1 nvt temp $t $t 0.01 fixedpoint 20.0 20.0 20.0
fix 1 1 nvt temp 100 $t 0.01 fixedpoint 20.0 20.0 20.0
fix 1 1 nvt temp 100 100 0.01 fixedpoint 20.0 20.0 20.0
timestep 0.001
run 20000
Neighbor list info ...
  update every 1 steps, delay 1 steps, check yes
  max neighbors/atom: 2000, page size: 100000
  master list distance cutoff = 9.0097
  ghost atom cutoff = 9.0097
  binsize = 4.50485, bins = 32 32 32
  1 neighbor lists, perpetual/occasional/extra = 1 0 0
  (1) pair kim, perpetual
      attributes: full, newton off, cut 9.009699999999999
      pair build: full/bin/atomonly
      stencil: full/bin/3d
      bin: standard
Per MPI rank memory allocation (min/avg/max) = 4.728 | 4.728 | 4.728 Mbytes
Step Temp c_ape c_ake 
       0            0   -3.3696246            0 
     100    97.502739   -3.4013593  0.012597251 
     200    101.50334   -3.4016333  0.013114124 
     300    98.069436    -3.394777  0.012670467 
     400    98.514398   -3.3905229  0.012727956 
     500    99.254646    -3.392302  0.012823595 
     600    97.921544   -3.4005605   0.01265136 
     700    97.601254    -3.402141  0.012609979 
     800    94.055635   -3.3917759  0.012151889 
     900    107.44224    -3.388077  0.013881424 
    1000    100.72332   -3.4021586  0.013013346 
    1100    99.404036   -3.3987894  0.012842896 
    1200    96.365383   -3.3938063  0.012450306 
    1300     103.1079   -3.3930714  0.013321432 
    1400    98.418937   -3.3965113  0.012715623 
    1500    101.51682   -3.3982188  0.013115865 
    1600    99.705092   -3.3994079  0.012881792 
    1700    97.458761   -3.3930065  0.012591569 
    1800    100.67276   -3.3983187  0.013006814 
    1900     92.92006   -3.3972791  0.012005174 
    2000      102.157   -3.3953132  0.013198576 
    2100    102.02623    -3.397718   0.01318168 
    2200    98.855562    -3.398159  0.012772034 
    2300    100.35613   -3.3935272  0.012965906 
    2400    98.273287   -3.4005338  0.012696805 
    2500    98.742612   -3.3972251  0.012757441 
    2600    99.747463   -3.3974553  0.012887267 
    2700    98.612718   -3.3937241  0.012740659 
    2800    103.48285   -3.3968781  0.013369875 
    2900    98.618852   -3.4003503  0.012741451 
    3000    101.94872   -3.3971971  0.013171666 
    3100    103.71211   -3.3939484  0.013399495 
    3200    96.061458   -3.3965114  0.012411039 
    3300    99.870376   -3.4007468  0.012903147 
    3400     96.46586   -3.3981223  0.012463287 
    3500    98.495767    -3.393509  0.012725549 
    3600    100.51568   -3.3953711  0.012986519 
    3700    102.62928   -3.3998515  0.013259594 
    3800    93.115726    -3.399418  0.012030453 
    3900    98.729921   -3.3944432  0.012755801 
    4000    105.31846   -3.3958295  0.013607034 
    4100    103.62708      -3.4015   0.01338851 
    4200    98.689157   -3.3960089  0.012750535 
    4300    98.529136   -3.3943083   0.01272986 
    4400    98.046572   -3.3949064  0.012667513 
    4500    104.74676   -3.4003482  0.013533171 
    4600    95.599373   -3.3982384  0.012351338 
    4700    101.16295   -3.3929629  0.013070147 
    4800    101.39817   -3.3951337  0.013100537 
    4900    97.742124   -3.4011828  0.012628179 
    5000    100.17712   -3.3977489  0.012942779 
    5100    98.476986   -3.3929189  0.012723122 
    5200    103.18455   -3.3968355  0.013331335 
    5300    98.279264   -3.3987613  0.012697577 
    5400    95.762948   -3.3989477  0.012372472 
    5500    98.086191   -3.3934828  0.012672632 
    5600    98.336032   -3.3977108  0.012704911 
    5700    97.527493   -3.4004121  0.012600449 
    5800    97.243641    -3.395398  0.012563776 
    5900    108.30694   -3.3949336  0.013993142 
    6000    103.81882   -3.3978756  0.013413281 
    6100     104.9156   -3.3987029  0.013554985 
    6200    95.742614   -3.3977949  0.012369844 
    6300    99.952016   -3.3943776  0.012913695 
    6400    102.65593   -3.3984756  0.013263037 
    6500    98.730775   -3.3998651  0.012755912 
    6600    99.925096   -3.3933368  0.012910217 
    6700    95.912639   -3.3953776  0.012391812 
    6800    98.612918   -3.3986796  0.012740685 
    6900    100.29035   -3.3987618  0.012957407 
    7000    105.05525   -3.3960961  0.013573027 
    7100    108.04464    -3.396214  0.013959254 
    7200    98.665511   -3.4004738   0.01274748 
    7300     99.79345   -3.3977395  0.012893208 
    7400    102.20471   -3.3944991   0.01320474 
    7500    99.649757   -3.3961434  0.012874643 
    7600    103.30345    -3.398727  0.013346696 
    7700    93.178258   -3.3979546  0.012038532 
    7800    93.712519   -3.3951832  0.012107558 
    7900    98.369612   -3.3976847   0.01270925 
    8000    100.63848   -3.3985667  0.013002385 
    8100     97.74591   -3.3960956  0.012628668 
    8200    100.69257   -3.3954383  0.013009374 
    8300    103.56346   -3.3967256  0.013380289 
    8400    98.698454   -3.4001835  0.012751736 
    8500    97.963667   -3.3951622  0.012656802 
    8600    97.970075   -3.3967551   0.01265763 
    8700    95.304545    -3.398771  0.012313246 
    8800    99.232162   -3.3949481   0.01282069 
    8900     97.77226   -3.3979123  0.012632073 
    9000    103.98701   -3.3949108  0.013435011 
    9100    102.87494   -3.3983762  0.013291333 
    9200    99.615293    -3.397421   0.01287019 
    9300    104.01456   -3.3959073  0.013438572 
    9400    101.48243   -3.3974333  0.013111423 
    9500    97.197972   -3.3973089  0.012557875 
    9600     99.72155   -3.3959255  0.012883919 
    9700    94.397312   -3.3955196  0.012196033 
    9800    102.58128   -3.3982766  0.013253393 
    9900    101.12958   -3.3976129  0.013065834 
   10000    99.378809   -3.3977572  0.012839637 
   10100    103.56772   -3.3971289  0.013380839 
   10200     98.13166   -3.3978924  0.012678507 
   10300    99.743168   -3.3973979  0.012886712 
   10400    101.78694   -3.3960117  0.013150765 
   10500     105.3546   -3.3967247  0.013611702 
   10600    100.61479   -3.3996664  0.012999325 
   10700    99.050902   -3.3971531  0.012797272 
   10800    99.701843   -3.3961292  0.012881373 
   10900    96.743997    -3.397422  0.012499222 
   11000    96.253941   -3.3986776  0.012435907 
   11100    87.733913   -3.3953913  0.011335129 
   11200    108.39196   -3.3940029  0.014004126 
   11300    103.71595   -3.3985842  0.013399991 
   11400    95.289591   -3.3978776  0.012311314 
   11500    100.17558    -3.396777  0.012942578 
   11600    101.99331   -3.3970661  0.013177427 
   11700    99.856224   -3.3991091  0.012901318 
   11800    99.299707   -3.3975326  0.012829417 
   11900    98.421987   -3.3956589  0.012716017 
   12000    96.157848   -3.3966076  0.012423492 
   12100    96.515113   -3.3985896  0.012469651 
   12200    107.17981   -3.3971102  0.013847518 
   12300    98.350285   -3.3962382  0.012706753 
   12400    100.26818   -3.3974556  0.012954543 
   12500     101.9205   -3.3972765  0.013168021 
   12600    103.09709   -3.3961494  0.013320035 
   12700    103.23088   -3.3967045   0.01333732 
   12800    102.27588   -3.3987725  0.013213936 
   12900    97.728415   -3.3974157  0.012626408 
   13000    103.48202   -3.3969412  0.013369767 
   13100    90.972362   -3.3957939  0.011753533 
   13200    97.149187    -3.398914  0.012551572 
   13300    97.559488   -3.3970275  0.012604583 
   13400    99.888517   -3.3953677  0.012905491 
   13500    96.600389   -3.3981527  0.012480668 
   13600    97.029745   -3.3979322   0.01253614 
   13700    99.511774   -3.3976951  0.012856816 
   13800    98.483484   -3.3963021  0.012723962 
   13900    98.700312   -3.3981693  0.012751976 
   14000    95.292127   -3.3982401  0.012311642 
   14100    100.86976   -3.3949446  0.013032266 
   14200    96.171926   -3.3972395  0.012425311 
   14300    95.616358   -3.3974861  0.012353532 
   14400    91.939811   -3.3969778  0.011878526 
   14500    92.917054   -3.3959389  0.012004785 
   14600      102.749   -3.3971396  0.013275062 
   14700    102.51739   -3.3984965  0.013245139 
   14800    98.725245   -3.3973742  0.012755197 
   14900    100.64001    -3.394233  0.013002583 
   15000     91.60736   -3.3975632  0.011835574 
   15100    96.785789   -3.3987768  0.012504622 
   15200    95.182356   -3.3961719   0.01229746 
   15300    92.456078   -3.3962741  0.011945228 
   15400    102.97926    -3.398311  0.013304811 
   15500    102.65932   -3.3973482  0.013263475 
   15600    96.940727   -3.3969229  0.012524639 
   15700    96.081552   -3.3958584  0.012413635 
   15800    97.792078   -3.3978017  0.012634633 
   15900    101.44829    -3.397591  0.013107012 
   16000    96.989327   -3.3964492  0.012530918 
   16100    105.31582    -3.397143  0.013606693 
   16200    104.90415    -3.398831  0.013553506 
   16300    97.318091   -3.3955168  0.012573394 
   16400    96.292309   -3.3962911  0.012440864 
   16500     102.8261   -3.3964313  0.013285023 
   16600    105.09655   -3.3989453  0.013578364 
   16700    102.05086   -3.3971083  0.013184863 
   16800    103.68087   -3.3971825  0.013395459 
   16900    105.85125   -3.3986623  0.013675869 
   17000    96.862215   -3.3974522  0.012514496 
   17100    102.75422   -3.3968749  0.013275736 
   17200     98.10422    -3.397341  0.012674961 
   17300    97.953547    -3.398042  0.012655495 
   17400    97.166459   -3.3966447  0.012553804 
   17500     94.85856   -3.3960893  0.012255626 
   17600    97.377783   -3.3974698  0.012581107 
   17700    95.679778   -3.3976531  0.012361726 
   17800    102.76722   -3.3965196  0.013277416 
   17900    106.44893   -3.3971831   0.01375309 
   18000    96.591892   -3.3974462   0.01247957 
   18100    91.994966   -3.3979315  0.011885652 
   18200     96.13006   -3.3951796  0.012419902 
   18300    97.808746   -3.3964385  0.012636787 
   18400    101.76478   -3.3976337  0.013147902 
   18500    93.490302   -3.3963922  0.012078848 
   18600    100.87848    -3.395071  0.013033393 
   18700    100.75888   -3.3962474  0.013017941 
   18800    97.405383   -3.3992045  0.012584672 
   18900    93.888414   -3.3968277  0.012130284 
   19000    98.955863   -3.3964427  0.012784993 
   19100    103.92275   -3.3982509   0.01342671 
   19200    105.31075   -3.3969917  0.013606037 
   19300     94.50291   -3.3958591  0.012209676 
   19400    101.69764   -3.3959156  0.013139227 
   19500    104.20605   -3.3978916  0.013463312 
   19600    95.958863   -3.3992128  0.012397784 
   19700    102.21042   -3.3958952  0.013205478 
   19800    101.74358   -3.3971833  0.013145162 
   19900     101.1633   -3.3983439  0.013070191 
   20000      100.588   -3.3990767  0.012995864 
Loop time of 57.6353 on 4 procs for 20000 steps with 2112 atoms

Performance: 29.982 ns/day, 0.800 hours/ns, 347.010 timesteps/s
99.1% CPU use with 4 MPI tasks x 1 OpenMP threads

MPI task timing breakdown:
Section |  min time  |  avg time  |  max time  |%varavg| %total
---------------------------------------------------------------
Pair    | 40.197     | 47.479     | 55.174     |  98.6 | 82.38
Neigh   | 0          | 0          | 0          |   0.0 |  0.00
Comm    | 1.4766     | 9.1407     | 16.399     | 224.2 | 15.86
Output  | 0.31346    | 0.31422    | 0.31626    |   0.2 |  0.55
Modify  | 0.43566    | 0.47386    | 0.51204    |   4.0 |  0.82
Other   |            | 0.2275     |            |       |  0.39

Nlocal:        528.000 ave         528 max         528 min
Histogram: 4 0 0 0 0 0 0 0 0 0
Nghost:        958.000 ave         958 max         958 min
Histogram: 4 0 0 0 0 0 0 0 0 0
Neighs:         0.00000 ave           0 max           0 min
Histogram: 4 0 0 0 0 0 0 0 0 0
FullNghs:      118984.0 ave      118984 max      118984 min
Histogram: 4 0 0 0 0 0 0 0 0 0

Total # of neighbors = 475936
Ave neighs/atom = 225.34848
Neighbor list builds = 0
Dangerous builds = 0
write_data Ni_$t_$c.data
write_data Ni_100_$c.data
write_data Ni_100_LowCutoff.data
System init for write_data ...
clear
OMP_NUM_THREADS environment is not set. Defaulting to 1 thread. (src/comm.cpp:94)
  using 1 OpenMP thread(s) per MPI task
next b
next c
jump SELF loop2
variable b index "Morse_Shifted_GirifalcoWeizer_1959HighCutoff_Ni__MO_381861218831_004" "Morse_Shifted_GirifalcoWeizer_1959LowCutoff_Ni__MO_322509103239_004" "Morse_Shifted_GirifalcoWeizer_1959MedCutoff_Ni__MO_758825945924_004"
variable c index "HighCutoff" "LowCutoff" "MedCutoff"
units metal
boundary p p p
atom_style atomic
lattice custom 3.5238 a1 1.0 0.0 0.0 a2 0.0 1.0 0.0 a3 0.0 0.0 1.0 basis 0.25 0.25 0.25 basis 0.25 0.75 0.75 basis 0.75 0.25 0.75 basis 0.75 0.75 0.25
Lattice spacing in x,y,z = 3.5238000 3.5238000 3.5238000
region 1 sphere 20.0 20.0 20.0 5.0
region 2 block 0.0 40.0 0.0 40.0 0.0 40.0
create_box 1 2
Created orthogonal box = (0.0000000 0.0000000 0.0000000) to (140.95200 140.95200 140.95200)
  2 by 1 by 2 MPI processor grid
mass 1 58.6934
create_atoms 1 region 1
Created 2112 atoms
  create_atoms CPU = 0.000 seconds
group 1 type 1
2112 atoms in group 1
pair_style kim $b
pair_style kim Morse_Shifted_GirifalcoWeizer_1959MedCutoff_Ni__MO_758825945924_004
pair_coeff * * Ni
neighbor 2.5 bin
neigh_modify every 1 delay 1
dump 1 all atom 100 dump.Ni_$t_$c
dump 1 all atom 100 dump.Ni_100_$c
dump 1 all atom 100 dump.Ni_100_MedCutoff
compute 1 1 pe/atom
compute 2 1 ke/atom
compute ape 1 reduce ave c_1
compute ake 1 reduce ave c_2
thermo_style custom step temp c_ape c_ake
thermo 100
fix 1 1 nvt temp $t $t 0.01 fixedpoint 20.0 20.0 20.0
fix 1 1 nvt temp 100 $t 0.01 fixedpoint 20.0 20.0 20.0
fix 1 1 nvt temp 100 100 0.01 fixedpoint 20.0 20.0 20.0
timestep 0.001
run 20000
Neighbor list info ...
  update every 1 steps, delay 1 steps, check yes
  max neighbors/atom: 2000, page size: 100000
  master list distance cutoff = 10.63295
  ghost atom cutoff = 10.63295
  binsize = 5.316475, bins = 27 27 27
  1 neighbor lists, perpetual/occasional/extra = 1 0 0
  (1) pair kim, perpetual
      attributes: full, newton off, cut 10.63295
      pair build: full/bin/atomonly
      stencil: full/bin/3d
      bin: standard
Per MPI rank memory allocation (min/avg/max) = 4.725 | 4.725 | 4.725 Mbytes
Step Temp c_ape c_ake 
       0            0   -3.5711513            0 
     100    97.709637   -3.5971289  0.012623982 
     200    100.59758   -3.5900473  0.012997101 
     300    102.75187   -3.5857759  0.013275433 
     400    102.81496   -3.5934705  0.013283584 
     500     95.12725   -3.5902809   0.01229034 
     600    101.39742    -3.588851   0.01310044 
     700    97.068146   -3.5934562  0.012541102 
     800    102.48771   -3.5909516  0.013241303 
     900    99.883619   -3.5904767  0.012904858 
    1000     99.59985   -3.5947725  0.012868195 
    1100    97.194434   -3.5861372  0.012557418 
    1200    104.03351   -3.5911916  0.013441019 
    1300    97.581494   -3.5947618  0.012607426 
    1400    97.500497   -3.5910999  0.012596961 
    1500    106.99445   -3.5888356  0.013823569 
    1600    98.744733     -3.59396  0.012757715 
    1700    100.41385   -3.5903062  0.012973363 
    1800    102.13517   -3.5923797  0.013195756 
    1900    100.24172   -3.5883708  0.012951124 
    2000     102.0972   -3.5922716   0.01319085 
    2100    103.15009   -3.5928234  0.013326882 
    2200    97.550603   -3.5899226  0.012603435 
    2300    109.12166   -3.5914338  0.014098403 
    2400    97.747273    -3.590538  0.012628844 
    2500    102.57225   -3.5913209  0.013252226 
    2600    101.01709   -3.5904875  0.013051301 
    2700    99.584092   -3.5910097  0.012866159 
    2800    103.48723   -3.5921785   0.01337044 
    2900    94.663844   -3.5915362  0.012230469 
    3000    103.16201    -3.589539  0.013328423 
    3100      101.664    -3.594485  0.013134881 
    3200    97.878416    -3.589466  0.012645788 
    3300    102.20426   -3.5906824  0.013204683 
    3400    95.434187   -3.5922982  0.012329996 
    3500    103.71361   -3.5922188  0.013399688 
    3600    97.779094   -3.5909446  0.012632955 
    3700    97.334616   -3.5907113  0.012575529 
    3800    96.573773   -3.5913054  0.012477229 
    3900    97.097738   -3.5918794  0.012544925 
    4000    96.252698   -3.5896797  0.012435747 
    4100    96.261242   -3.5904506  0.012436851 
    4200    97.764877   -3.5941555  0.012631119 
    4300    96.218297   -3.5923486  0.012431302 
    4400    105.38507   -3.5929572  0.013615639 
    4500     103.8612   -3.5911449  0.013418758 
    4600    102.80087    -3.591756  0.013281764 
    4700      97.4561   -3.5904059  0.012591225 
    4800    100.03648    -3.588168  0.012924608 
    4900    104.89165   -3.5933307  0.013551891 
    5000    98.442631   -3.5908509  0.012718684 
    5100    91.023061   -3.5895909  0.011760083 
    5200    102.81381   -3.5918576  0.013283435 
    5300     96.02916   -3.5913015  0.012406866 
    5400    100.30506   -3.5913265  0.012959308 
    5500    99.435281   -3.5897253  0.012846933 
    5600    99.345505   -3.5910116  0.012835334 
    5700    105.36134   -3.5919773  0.013612573 
    5800    98.987981   -3.5917893  0.012789142 
    5900    98.948309   -3.5902729  0.012784017 
    6000    103.70482   -3.5916514  0.013398553 
    6100    92.266225   -3.5926547  0.011920699 
    6200    96.040925   -3.5884478  0.012408386 
    6300    94.571824   -3.5909667   0.01221858 
    6400    98.520942   -3.5920935  0.012728801 
    6500    100.40805   -3.5923418  0.012972614 
    6600    97.930887   -3.5909544  0.012652567 
    6700    102.45123   -3.5917202   0.01323659 
    6800    99.209791   -3.5933584    0.0128178 
    6900    102.72815   -3.5905952  0.013272369 
    7000    95.486302   -3.5886427  0.012336729 
    7100    105.30663   -3.5932331  0.013605506 
    7200     96.80518   -3.5906334  0.012507127 
    7300    99.713981   -3.5923236  0.012882941 
    7400    106.92902   -3.5923874  0.013815117 
    7500    94.631325   -3.5909007  0.012226267 
    7600    98.983042   -3.5922245  0.012788504 
    7700     97.89931   -3.5898161  0.012648487 
    7800    104.68601   -3.5917454  0.013525321 
    7900    92.022899   -3.5925384  0.011889261 
    8000    107.18219   -3.5913667  0.013847825 
    8100    100.26335   -3.5902837  0.012953919 
    8200    108.38769   -3.5930593  0.014003574 
    8300    93.022675   -3.5913777  0.012018431 
    8400    103.76041   -3.5905192  0.013405736 
    8500    104.52454    -3.591528   0.01350446 
    8600    96.374028   -3.5927287  0.012451422 
    8700    107.44622   -3.5924362  0.013881938 
    8800    99.862428   -3.5898127   0.01290212 
    8900     101.1659   -3.5919215  0.013070527 
    9000     102.2264    -3.592422  0.013207542 
    9100    91.228044   -3.5906668  0.011786567 
    9200    103.47431   -3.5897478  0.013368771 
    9300    99.833652   -3.5929337  0.012898402 
    9400    101.30728   -3.5919581  0.013088794 
    9500    94.987992   -3.5917168  0.012272348 
    9600    96.165902   -3.5913395  0.012424533 
    9700    100.98811   -3.5911944  0.013047557 
    9800    97.894535   -3.5934712   0.01264787 
    9900    103.56332   -3.5898097  0.013380272 
   10000    104.89495   -3.5912799  0.013552317 
   10100     100.8864   -3.5924094  0.013034417 
   10200    95.104354   -3.5917102  0.012287382 
   10300    93.379021   -3.5909186  0.012064471 
   10400    101.52553    -3.591509  0.013116991 
   10500    94.897732   -3.5914904  0.012260687 
   10600    97.877588   -3.5898556  0.012645681 
   10700    95.933594   -3.5901357  0.012394519 
   10800    100.68303   -3.5931225  0.013008141 
   10900    99.655801   -3.5902511  0.012875424 
   11000    95.793444   -3.5907298  0.012376412 
   11100    102.71487   -3.5920183  0.013270653 
   11200    100.23008   -3.5923333  0.012949621 
   11300    98.710695   -3.5899789  0.012753317 
   11400    102.86827   -3.5920115  0.013290472 
   11500    100.79702   -3.5908073  0.013022869 
   11600    103.12426   -3.5926643  0.013323546 
   11700    98.700943   -3.5901829  0.012752057 
   11800    103.51171   -3.5905112  0.013373603 
   11900    95.561478   -3.5928013  0.012346442 
   12000    99.870175   -3.5897931  0.012903121 
   12100     102.0114   -3.5906091  0.013179765 
   12200    105.80794    -3.590291  0.013670274 
   12300    103.77904   -3.5923381  0.013408142 
   12400    95.770292   -3.5920434   0.01237342 
   12500    100.71015    -3.591603  0.013011644 
   12600    103.94663   -3.5921904  0.013429794 
   12700    99.442022   -3.5930606  0.012847804 
   12800     103.3735   -3.5902358  0.013355746 
   12900    102.51439    -3.589074  0.013244751 
   13000    93.312906   -3.5920519  0.012055929 
   13100    101.79524   -3.5916593  0.013151837 
   13200    95.799275   -3.5909222  0.012377165 
   13300    100.02664   -3.5911331  0.012923336 
   13400    97.612062   -3.5921939  0.012611375 
   13500    96.392811   -3.5903684  0.012453849 
   13600    96.143574   -3.5900188  0.012421648 
   13700    108.29917   -3.5901359  0.013992139 
   13800    98.483266   -3.5928267  0.012723934 
   13900    96.503531   -3.5895245  0.012468154 
   14000    106.74285   -3.5923302  0.013791063 
   14100    96.976781   -3.5910104  0.012529298 
   14200    95.286398   -3.5909396  0.012310902 
   14300     98.99382   -3.5917173  0.012789897 
   14400    108.52805   -3.5916699  0.014021709 
   14500    102.90823   -3.5938254  0.013295634 
   14600    98.578042   -3.5905006  0.012736179 
   14700    95.422293   -3.5907524  0.012328459 
   14800    106.01275     -3.59212  0.013696735 
   14900     93.48632   -3.5916815  0.012078334 
   15000    103.54856   -3.5902834  0.013378364 
   15100    94.451546    -3.591798   0.01220304 
   15200    96.335462   -3.5905903   0.01244644 
   15300    97.391536   -3.5916763  0.012582883 
   15400    102.20365   -3.5894932  0.013204603 
   15500    98.646665   -3.5918065  0.012745045 
   15600    95.144994   -3.5919055  0.012292633 
   15700    111.78283   -3.5916813  0.014442223 
   15800    96.410646   -3.5907879  0.012456153 
   15900    103.21707   -3.5919681  0.013335536 
   16000    95.734682   -3.5924799   0.01236882 
   16100     107.0992   -3.5898962  0.013837103 
   16200    98.201307   -3.5914368  0.012687505 
   16300    107.40751   -3.5911165  0.013876936 
   16400    92.869494   -3.5923045   0.01199864 
   16500    105.42748   -3.5888551  0.013621118 
   16600    101.21697   -3.5907011  0.013077126 
   16700    100.14191   -3.5922637  0.012938229 
   16800    103.28407   -3.5915745  0.013344192 
   16900    103.01088   -3.5895553  0.013308897 
   17000    101.51979   -3.5937181  0.013116249 
   17100    102.33198   -3.5899242  0.013221184 
   17200    99.875603   -3.5904615  0.012903822 
   17300    102.66707   -3.5897931  0.013264477 
   17400    104.32596   -3.5916916  0.013478803 
   17500    103.00527   -3.5918081  0.013308172 
   17600    106.15587   -3.5899389  0.013715226 
   17700    97.718181    -3.592855  0.012625086 
   17800    101.41618   -3.5895327  0.013102863 
   17900    97.338107   -3.5919663   0.01257598 
   18000    98.186803   -3.5905183  0.012685631 
   18100    102.75481   -3.5910764  0.013275813 
   18200    102.49855   -3.5926285  0.013242704 
   18300    93.882732   -3.5911978   0.01212955 
   18400    106.19285   -3.5915717  0.013720005 
   18500    91.268633   -3.5921087  0.011791811 
   18600    94.129243   -3.5920386  0.012161399 
   18700    98.574552    -3.588947  0.012735728 
   18800    104.48575   -3.5917624  0.013499449 
   18900    100.91756   -3.5916592  0.013038443 
   19000    101.79278   -3.5923544   0.01315152 
   19100    93.161246   -3.5901574  0.012036334 
   19200    103.27468   -3.5920935   0.01334298 
   19300    100.80458   -3.5915949  0.013023845 
   19400    98.154018   -3.5902522  0.012681395 
   19500    102.45715   -3.5911827  0.013237355 
   19600    102.12448   -3.5919275  0.013194374 
   19700    97.799435   -3.5927485  0.012635584 
   19800     106.3946   -3.5910476   0.01374607 
   19900    95.578942   -3.5912607  0.012348698 
   20000    98.878216   -3.5917087  0.012774961 
Loop time of 89.9807 on 4 procs for 20000 steps with 2112 atoms

Performance: 19.204 ns/day, 1.250 hours/ns, 222.270 timesteps/s
98.9% CPU use with 4 MPI tasks x 1 OpenMP threads

MPI task timing breakdown:
Section |  min time  |  avg time  |  max time  |%varavg| %total
---------------------------------------------------------------
Pair    | 67.486     | 77.61      | 86.914     | 103.4 | 86.25
Neigh   | 0          | 0          | 0          |   0.0 |  0.00
Comm    | 2.0547     | 11.33      | 21.43      | 271.1 | 12.59
Output  | 0.30559    | 0.30631    | 0.30833    |   0.2 |  0.34
Modify  | 0.38877    | 0.48959    | 0.59253    |  10.4 |  0.54
Other   |            | 0.2444     |            |       |  0.27

Nlocal:        528.000 ave         528 max         528 min
Histogram: 4 0 0 0 0 0 0 0 0 0
Nghost:        1150.00 ave        1150 max        1150 min
Histogram: 4 0 0 0 0 0 0 0 0 0
Neighs:         0.00000 ave           0 max           0 min
Histogram: 4 0 0 0 0 0 0 0 0 0
FullNghs:      161476.0 ave      161476 max      161476 min
Histogram: 4 0 0 0 0 0 0 0 0 0

Total # of neighbors = 645904
Ave neighs/atom = 305.82576
Neighbor list builds = 0
Dangerous builds = 0
write_data Ni_$t_$c.data
write_data Ni_100_$c.data
write_data Ni_100_MedCutoff.data
System init for write_data ...
clear
OMP_NUM_THREADS environment is not set. Defaulting to 1 thread. (src/comm.cpp:94)
  using 1 OpenMP thread(s) per MPI task
next b
next c
jump SELF loop2
clear
OMP_NUM_THREADS environment is not set. Defaulting to 1 thread. (src/comm.cpp:94)
  using 1 OpenMP thread(s) per MPI task
next a
jump SELF loop1
variable a loop 20
variable t equal $t+100
variable t equal 100+100
print "Temperature is $t"
Temperature is 200
label loop2
variable b index "Morse_Shifted_GirifalcoWeizer_1959HighCutoff_Ni__MO_381861218831_004" "Morse_Shifted_GirifalcoWeizer_1959LowCutoff_Ni__MO_322509103239_004" "Morse_Shifted_GirifalcoWeizer_1959MedCutoff_Ni__MO_758825945924_004"
variable c index "HighCutoff" "LowCutoff" "MedCutoff"
units metal
boundary p p p
atom_style atomic
lattice custom 3.5238 a1 1.0 0.0 0.0 a2 0.0 1.0 0.0 a3 0.0 0.0 1.0 basis 0.25 0.25 0.25 basis 0.25 0.75 0.75 basis 0.75 0.25 0.75 basis 0.75 0.75 0.25
Lattice spacing in x,y,z = 3.5238000 3.5238000 3.5238000
region 1 sphere 20.0 20.0 20.0 5.0
region 2 block 0.0 40.0 0.0 40.0 0.0 40.0
create_box 1 2
Created orthogonal box = (0.0000000 0.0000000 0.0000000) to (140.95200 140.95200 140.95200)
  2 by 1 by 2 MPI processor grid
mass 1 58.6934
create_atoms 1 region 1
Created 2112 atoms
  create_atoms CPU = 0.001 seconds
group 1 type 1
2112 atoms in group 1
pair_style kim $b
pair_style kim Morse_Shifted_GirifalcoWeizer_1959HighCutoff_Ni__MO_381861218831_004
pair_coeff * * Ni
neighbor 2.5 bin
neigh_modify every 1 delay 1
dump 1 all atom 100 dump.Ni_$t_$c
dump 1 all atom 100 dump.Ni_200_$c
dump 1 all atom 100 dump.Ni_200_HighCutoff
compute 1 1 pe/atom
compute 2 1 ke/atom
compute ape 1 reduce ave c_1
compute ake 1 reduce ave c_2
thermo_style custom step temp c_ape c_ake
thermo 100
fix 1 1 nvt temp $t $t 0.01 fixedpoint 20.0 20.0 20.0
fix 1 1 nvt temp 200 $t 0.01 fixedpoint 20.0 20.0 20.0
fix 1 1 nvt temp 200 200 0.01 fixedpoint 20.0 20.0 20.0
timestep 0.001
run 20000
Neighbor list info ...
  update every 1 steps, delay 1 steps, check yes
  max neighbors/atom: 2000, page size: 100000
  master list distance cutoff = 12.25476
  ghost atom cutoff = 12.25476
  binsize = 6.12738, bins = 24 24 24
  1 neighbor lists, perpetual/occasional/extra = 1 0 0
  (1) pair kim, perpetual
      attributes: full, newton off, cut 12.25476
      pair build: full/bin/atomonly
      stencil: full/bin/3d
      bin: standard
Per MPI rank memory allocation (min/avg/max) = 5.117 | 5.117 | 5.117 Mbytes
Step Temp c_ape c_ake 
       0            0   -3.6050352            0 
     100    186.41566   -3.6195845  0.024084706 
     200    205.92332   -3.6046505  0.026605075 
     300    201.54173   -3.6029053  0.026038978 
     400    196.61537   -3.6182125  0.025402497 
     500     185.9124   -3.6065521  0.024019686 
     600    200.25893    -3.606417  0.025873242 
     700    196.42657   -3.6160403  0.025378105 
     800    204.33637   -3.6109826  0.026400043 
     900    197.78855   -3.6092922  0.025554071 
    1000    197.35369   -3.6148425  0.025497888 
    1100    193.14351   -3.6040471  0.024953938 
    1200    209.38181   -3.6138274  0.027051909 
    1300    195.53058    -3.613545  0.025262344 
    1400    200.42585   -3.6125078  0.025894808 
    1500    200.89231    -3.610305  0.025955073 
    1600    197.51054   -3.6161911  0.025518153 
    1700    201.43645   -3.6104629  0.026025376 
    1800    208.44995    -3.612411  0.026931513 
    1900    197.22934   -3.6072089  0.025481822 
    2000    220.98842   -3.6161566   0.02855147 
    2100    199.48997   -3.6141119  0.025773894 
    2200    200.45946   -3.6078185   0.02589915 
    2300    204.51469   -3.6122907  0.026423082 
    2400    191.62319   -3.6102312  0.024757513 
    2500     211.0007   -3.6113803  0.027261068 
    2600    189.79753   -3.6125015  0.024521641 
    2700    197.29941   -3.6119588  0.025490875 
    2800    202.46595   -3.6129106  0.026158387 
    2900    204.14228   -3.6144927  0.026374966 
    3000     217.4486   -3.6099688  0.028094129 
    3100    201.05059    -3.616367  0.025975524 
    3200    203.71439   -3.6074156  0.026319684 
    3300    206.72007   -3.6099424  0.026708014 
    3400     189.0791   -3.6143406  0.024428819 
    3500    216.66483   -3.6109024  0.027992867 
    3600    187.36446   -3.6104244   0.02420729 
    3700    206.30144   -3.6118469  0.026653927 
    3800    198.80687   -3.6145358  0.025685637 
    3900    201.67642   -3.6115609   0.02605638 
    4000    197.23973   -3.6089545  0.025483165 
    4100    195.16458   -3.6109082  0.025215057 
    4200    208.43931   -3.6154951  0.026930139 
    4300    197.56978   -3.6127138  0.025525807 
    4400    204.09442   -3.6101001  0.026368784 
    4500    209.83012   -3.6132124   0.02710983 
    4600    200.80339    -3.612734  0.025943586 
    4700    203.62517   -3.6100013  0.026308156 
    4800    199.51447   -3.6076788  0.025777058 
    4900    203.96396   -3.6111274  0.026351928 
    5000    184.30964   -3.6121362  0.023812611 
    5100    207.60663   -3.6117654  0.026822557 
    5200    194.52464   -3.6119965  0.025132377 
    5300    193.80023   -3.6132541  0.025038785 
    5400    178.08869   -3.6109086   0.02300887 
    5500    205.95263   -3.6114448  0.026608861 
    5600    201.06849   -3.6092078  0.025977836 
    5700     210.2167   -3.6144699  0.027159775 
    5800    201.40484   -3.6109247  0.026021292 
    5900    191.25989   -3.6084032  0.024710575 
    6000    209.36776   -3.6131081  0.027050094 
    6100    201.92571   -3.6164997  0.026088588 
    6200    199.85806   -3.6081761   0.02582145 
    6300    203.62504   -3.6117156   0.02630814 
    6400    208.22993   -3.6117207  0.026903087 
    6500    206.33511   -3.6139006  0.026658278 
    6600    208.42299   -3.6155214  0.026928029 
    6700    193.64391   -3.6103279  0.025018589 
    6800    196.52764   -3.6126548  0.025391163 
    6900    196.85691   -3.6113942  0.025433705 
    7000    211.44977    -3.611074  0.027319087 
    7100    209.45574   -3.6144145  0.027061459 
    7200    209.56282   -3.6126806  0.027075295 
    7300    200.97989   -3.6097331  0.025966389 
    7400    203.29058   -3.6142589  0.026264929 
    7500    202.10785   -3.6107901  0.026112121 
    7600    191.69602   -3.6156689  0.024766924 
    7700     184.4807   -3.6062672  0.023834712 
    7800    209.50036   -3.6095779  0.027067225 
    7900    191.52955   -3.6154764  0.024745416 
    8000    205.03039   -3.6107308   0.02648971 
    8100    197.49573    -3.612418   0.02551624 
    8200    187.52836   -3.6108473  0.024228466 
    8300    212.78035   -3.6128719  0.027490996 
    8400    197.85828   -3.6111795  0.025563081 
    8500    201.92177   -3.6081229  0.026088079 
    8600    202.99188   -3.6124631  0.026226336 
    8700    189.91723   -3.6110398  0.024537105 
    8800    217.42913   -3.6147234  0.028091614 
    8900    203.05981   -3.6067543  0.026235113 
    9000     195.2721    -3.616182  0.025228949 
    9100    187.55034   -3.6099024  0.024231306 
    9200    198.88306   -3.6083582  0.025695481 
    9300    196.56121   -3.6117637    0.0253955 
    9400    189.21111   -3.6143514  0.024445876 
    9500    203.53736   -3.6109807  0.026296812 
    9600    181.45247   -3.6101986  0.023443467 
    9700    196.68473   -3.6122855  0.025411459 
    9800    206.72384   -3.6122323  0.026708502 
    9900    212.11597    -3.611758  0.027405159 
   10000    187.05542   -3.6101209  0.024167362 
   10100    193.30419    -3.614492  0.024974697 
   10200    206.07878   -3.6125429   0.02662516 
   10300    197.21797   -3.6139566  0.025480354 
   10400    199.25772   -3.6120582  0.025743887 
   10500    192.00139   -3.6129829  0.024806376 
   10600    202.70721   -3.6107201  0.026189557 
   10700    209.19439   -3.6080655  0.027027694 
   10800      195.168   -3.6133956  0.025215499 
   10900    182.71891   -3.6106545   0.02360709 
   11000    196.02712   -3.6140463  0.025326497 
   11100    203.99629   -3.6126361  0.026356105 
   11200    197.28698   -3.6128543  0.025489269 
   11300    185.64527   -3.6097323  0.023985173 
   11400    189.87825   -3.6078234  0.024532069 
   11500    206.76504   -3.6127076  0.026713825 
   11600      195.066   -3.6118413  0.025202321 
   11700    193.56496   -3.6101962  0.025008389 
   11800    199.21969   -3.6125762  0.025738974 
   11900    203.03138   -3.6124701  0.026231439 
   12000    205.47219   -3.6114896   0.02654679 
   12100    196.97285   -3.6084678  0.025448684 
   12200    205.83081   -3.6084728  0.026593123 
   12300    197.65332   -3.6117201    0.0255366 
   12400    185.42024   -3.6127717  0.023956098 
   12500    186.91763   -3.6086663   0.02414956 
   12600    198.65498   -3.6121087  0.025666013 
   12700    212.26703   -3.6151885  0.027424676 
   12800    188.58091   -3.6091641  0.024364455 
   12900    186.20606   -3.6095512  0.024057626 
   13000    195.51979   -3.6106592   0.02526095 
   13100    185.21924   -3.6128151  0.023930131 
   13200    213.65859   -3.6116202  0.027604464 
   13300    194.30334   -3.6119186  0.025103786 
   13400    194.30373   -3.6127594  0.025103836 
   13500    208.47243   -3.6136614  0.026934418 
   13600    184.97395   -3.6074505  0.023898439 
   13700    214.74532   -3.6135952  0.027744869 
   13800     206.6717   -3.6128168  0.026701765 
   13900    191.99551    -3.612712  0.024805616 
   14000    196.57717   -3.6117996  0.025397563 
   14100    195.20622   -3.6130787  0.025220437 
   14200    200.87812   -3.6120515   0.02595324 
   14300    207.65786   -3.6066104  0.026829175 
   14400    187.24966   -3.6132878  0.024192458 
   14500    188.91896   -3.6121265   0.02440813 
   14600    192.19734   -3.6117312  0.024831693 
   14700    198.63913   -3.6090264  0.025663965 
   14800    199.84422    -3.613332  0.025819662 
   14900    192.74517   -3.6149091  0.024902473 
   15000    208.55905   -3.6106928  0.026945609 
   15100    195.55206   -3.6085211  0.025265119 
   15200    201.57878   -3.6112577  0.026043765 
   15300    205.93908   -3.6136554  0.026607111 
   15400      212.639    -3.608855  0.027472733 
   15500    191.87654   -3.6106114  0.024790246 
   15600    206.14158   -3.6146961  0.026633275 
   15700    195.29778   -3.6097599  0.025232266 
   15800    193.46658   -3.6111917  0.024995677 
   15900    189.72533   -3.6100917  0.024512312 
   16000    193.82878   -3.6108395  0.025042474 
   16100     188.7663   -3.6137101  0.024388406 
   16200    198.20532    -3.610139  0.025607917 
   16300    209.71817   -3.6126005  0.027095366 
   16400    203.85317   -3.6110723  0.026337614 
   16500     196.5215   -3.6112173   0.02539037 
   16600    211.01397   -3.6112372  0.027262781 
   16700    205.74315   -3.6143712  0.026581797 
   16800    201.17921   -3.6141038  0.025992141 
   16900    194.32821   -3.6119624     0.025107 
   17000    200.88478   -3.6131941  0.025954101 
   17100    211.28095   -3.6121882  0.027297275 
   17200    212.84287   -3.6115185  0.027499074 
   17300    194.61236   -3.6111631  0.025143711 
   17400    207.39223   -3.6114696  0.026794857 
   17500    198.94578   -3.6134207  0.025703585 
   17600     204.6904   -3.6135865  0.026445784 
   17700    206.13025   -3.6118433   0.02663181 
   17800    188.55673   -3.6126319   0.02436133 
   17900    207.14179   -3.6101211    0.0267625 
   18000    190.87217   -3.6108787  0.024660482 
   18100    193.51008   -3.6120107  0.025001297 
   18200    193.26187   -3.6125547  0.024969229 
   18300    196.09064   -3.6106625  0.025334703 
   18400    197.57256    -3.608857  0.025526166 
   18500    202.90975   -3.6151376  0.026215725 
   18600     198.4785   -3.6109525  0.025643212 
   18700     199.2923   -3.6088591  0.025748354 
   18800    204.05934     -3.60962   0.02636425 
   18900    199.34687   -3.6130669  0.025755405 
   19000    196.11361   -3.6126456   0.02533767 
   19100    201.60106    -3.613296  0.026046644 
   19200    204.87331    -3.610177  0.026469415 
   19300    189.60474   -3.6145636  0.024496732 
   19400    198.47683    -3.609781  0.025642997 
   19500    205.07832   -3.6077878  0.026495902 
   19600    203.47188   -3.6112809  0.026288352 
   19700    210.91227   -3.6134073  0.027249642 
   19800    196.97281    -3.612143  0.025448678 
   19900    185.20316   -3.6109686  0.023928053 
   20000    200.14804   -3.6118541  0.025858914 
Loop time of 145.609 on 4 procs for 20000 steps with 2112 atoms

Performance: 11.867 ns/day, 2.022 hours/ns, 137.354 timesteps/s
99.2% CPU use with 4 MPI tasks x 1 OpenMP threads

MPI task timing breakdown:
Section |  min time  |  avg time  |  max time  |%varavg| %total
---------------------------------------------------------------
Pair    | 111.09     | 126.81     | 142.51     | 135.1 | 87.09
Neigh   | 0          | 0          | 0          |   0.0 |  0.00
Comm    | 1.9974     | 17.691     | 33.484     | 362.4 | 12.15
Output  | 0.30984    | 0.3106     | 0.31264    |   0.2 |  0.21
Modify  | 0.43171    | 0.53779    | 0.64396    |  10.5 |  0.37
Other   |            | 0.2579     |            |       |  0.18

Nlocal:        528.000 ave         528 max         528 min
Histogram: 4 0 0 0 0 0 0 0 0 0
Nghost:        1324.00 ave        1324 max        1324 min
Histogram: 4 0 0 0 0 0 0 0 0 0
Neighs:         0.00000 ave           0 max           0 min
Histogram: 4 0 0 0 0 0 0 0 0 0
FullNghs:      224586.0 ave      224586 max      224586 min
Histogram: 4 0 0 0 0 0 0 0 0 0

Total # of neighbors = 898344
Ave neighs/atom = 425.35227
Neighbor list builds = 0
Dangerous builds = 0
write_data Ni_$t_$c.data
write_data Ni_200_$c.data
write_data Ni_200_HighCutoff.data
System init for write_data ...
clear
OMP_NUM_THREADS environment is not set. Defaulting to 1 thread. (src/comm.cpp:94)
  using 1 OpenMP thread(s) per MPI task
next b
next c
jump SELF loop2
variable b index "Morse_Shifted_GirifalcoWeizer_1959HighCutoff_Ni__MO_381861218831_004" "Morse_Shifted_GirifalcoWeizer_1959LowCutoff_Ni__MO_322509103239_004" "Morse_Shifted_GirifalcoWeizer_1959MedCutoff_Ni__MO_758825945924_004"
variable c index "HighCutoff" "LowCutoff" "MedCutoff"
units metal
boundary p p p
atom_style atomic
lattice custom 3.5238 a1 1.0 0.0 0.0 a2 0.0 1.0 0.0 a3 0.0 0.0 1.0 basis 0.25 0.25 0.25 basis 0.25 0.75 0.75 basis 0.75 0.25 0.75 basis 0.75 0.75 0.25
Lattice spacing in x,y,z = 3.5238000 3.5238000 3.5238000
region 1 sphere 20.0 20.0 20.0 5.0
region 2 block 0.0 40.0 0.0 40.0 0.0 40.0
create_box 1 2
Created orthogonal box = (0.0000000 0.0000000 0.0000000) to (140.95200 140.95200 140.95200)
  2 by 1 by 2 MPI processor grid
mass 1 58.6934
create_atoms 1 region 1
Created 2112 atoms
  create_atoms CPU = 0.000 seconds
group 1 type 1
2112 atoms in group 1
pair_style kim $b
pair_style kim Morse_Shifted_GirifalcoWeizer_1959LowCutoff_Ni__MO_322509103239_004
pair_coeff * * Ni
neighbor 2.5 bin
neigh_modify every 1 delay 1
dump 1 all atom 100 dump.Ni_$t_$c
dump 1 all atom 100 dump.Ni_200_$c
dump 1 all atom 100 dump.Ni_200_LowCutoff
compute 1 1 pe/atom
compute 2 1 ke/atom
compute ape 1 reduce ave c_1
compute ake 1 reduce ave c_2
thermo_style custom step temp c_ape c_ake
thermo 100
fix 1 1 nvt temp $t $t 0.01 fixedpoint 20.0 20.0 20.0
fix 1 1 nvt temp 200 $t 0.01 fixedpoint 20.0 20.0 20.0
fix 1 1 nvt temp 200 200 0.01 fixedpoint 20.0 20.0 20.0
timestep 0.001
run 20000
Neighbor list info ...
  update every 1 steps, delay 1 steps, check yes
  max neighbors/atom: 2000, page size: 100000
  master list distance cutoff = 9.0097
  ghost atom cutoff = 9.0097
  binsize = 4.50485, bins = 32 32 32
  1 neighbor lists, perpetual/occasional/extra = 1 0 0
  (1) pair kim, perpetual
      attributes: full, newton off, cut 9.009699999999999
      pair build: full/bin/atomonly
      stencil: full/bin/3d
      bin: standard
Per MPI rank memory allocation (min/avg/max) = 4.728 | 4.728 | 4.728 Mbytes
Step Temp c_ape c_ake 
       0            0   -3.3696246            0 
     100    189.32482   -3.3931245  0.024460566 
     200    206.71845   -3.3870589  0.026707805 
     300    199.13336   -3.3754619   0.02572782 
     400    201.46053    -3.375218  0.026028488 
     500    197.63467   -3.3817717   0.02553419 
     600    197.32032   -3.3919897  0.025493576 
     700    187.97482   -3.3884803  0.024286148 
     800    200.56992   -3.3730404  0.025913421 
     900    204.33802   -3.3802138  0.026400256 
    1000    195.79406   -3.3932822  0.025296386 
    1100    200.54772   -3.3824573  0.025910554 
    1200    199.19683   -3.3741456   0.02573602 
    1300    205.67227   -3.3798892   0.02657264 
    1400     194.5914   -3.3883923  0.025141004 
    1500    193.13637   -3.3832913  0.024953015 
    1600    199.16051   -3.3850451  0.025731327 
    1700    207.87192   -3.3827156  0.026856832 
    1800    206.23936   -3.3886006  0.026645907 
    1900    186.82607   -3.3840782   0.02413773 
    2000    211.49231   -3.3747191  0.027324582 
    2100    206.87881   -3.3819691  0.026728523 
    2200    197.85294   -3.3865554   0.02556239 
    2300    207.43785   -3.3811985   0.02680075 
    2400    186.50346   -3.3861122   0.02409605 
    2500    193.89286   -3.3818236  0.025050752 
    2600    192.69159    -3.385497  0.024895549 
    2700    194.81494   -3.3796157  0.025169884 
    2800    199.73691   -3.3798245  0.025805798 
    2900    206.33531   -3.3871745  0.026658304 
    3000    185.31396   -3.3815291  0.023942368 
    3100    204.83473   -3.3804556  0.026464431 
    3200    204.25672   -3.3845504  0.026389752 
    3300     204.1798    -3.388431  0.026379814 
    3400    198.12704   -3.3854381  0.025597804 
    3500    198.53555     -3.37949  0.025650583 
    3600    200.82656   -3.3792168   0.02594658 
    3700    203.04008   -3.3864357  0.026232563 
    3800     202.8286   -3.3888644  0.026205241 
    3900    205.01929   -3.3788517  0.026488276 
    4000     201.0422   -3.3813398  0.025974439 
    4100    194.81802   -3.3911516  0.025170282 
    4200    197.32193   -3.3819374  0.025493785 
    4300    202.47249   -3.3797362  0.026159231 
    4400    219.24885      -3.3784  0.028326719 
    4500    195.75325   -3.3863975  0.025291113 
    4600    193.81105   -3.3855573  0.025040182 
    4700    194.43074   -3.3781158  0.025120246 
    4800    200.01339    -3.381799  0.025841518 
    4900    197.15587   -3.3909227   0.02547233 
    5000    199.45319   -3.3814979  0.025769141 
    5100    194.41589   -3.3770558  0.025118327 
    5200    202.01887   -3.3820924  0.026100625 
    5300    200.62617   -3.3877239  0.025920689 
    5400    193.99943   -3.3847485  0.025064521 
    5500    200.14124   -3.3806233  0.025858037 
    5600    202.83626   -3.3856759  0.026206231 
    5700    197.13655   -3.3882055  0.025469834 
    5800    192.57461   -3.3832286  0.024880436 
    5900    199.15944   -3.3726393  0.025731189 
    6000    188.52056    -3.385435  0.024356657 
    6100    200.62929   -3.3883785  0.025921092 
    6200    201.53367   -3.3844792  0.026037937 
    6300    206.53651   -3.3799763  0.026684299 
    6400    206.03499   -3.3843443  0.026619502 
    6500    198.34176     -3.39003  0.025625546 
    6600    194.35985    -3.381987  0.025111087 
    6700    201.65515     -3.37866  0.026053632 
    6800    211.98477   -3.3834898  0.027388208 
    6900    203.88658   -3.3862144  0.026341931 
    7000    182.36446   -3.3828247  0.023561295 
    7100     211.3385   -3.3811704  0.027304711 
    7200    213.63053   -3.3846059  0.027600839 
    7300    197.86321   -3.3858057  0.025563717 
    7400    191.12059    -3.380546  0.024692578 
    7500     195.4828   -3.3800066  0.025256171 
    7600     203.9139   -3.3854063   0.02634546 
    7700    199.49401   -3.3831934  0.025774415 
    7800    187.72227   -3.3853617  0.024253518 
    7900    204.21057   -3.3814043  0.026383789 
    8000    205.23056   -3.3850949  0.026515571 
    8100    203.02204   -3.3836401  0.026230233 
    8200    192.91946   -3.3807176  0.024924991 
    8300    199.67208     -3.38429  0.025797421 
    8400    191.32959      -3.3862  0.024719581 
    8500    197.93805   -3.3834387  0.025573387 
    8600    195.00459   -3.3814564  0.025194387 
    8700    201.66886   -3.3867525  0.026055403 
    8800    193.39803   -3.3868028  0.024986821 
    8900     198.0844   -3.3783825  0.025592295 
    9000     198.1932   -3.3813537  0.025606352 
    9100    201.74698   -3.3839962  0.026065496 
    9200    198.69812   -3.3897489  0.025671587 
    9300    211.53442   -3.3809402  0.027330023 
    9400    200.78553   -3.3852538  0.025941278 
    9500    201.89237   -3.3860152  0.026084281 
    9600    207.19037   -3.3861095  0.026768777 
    9700    195.88754    -3.379834  0.025308463 
    9800    194.20144   -3.3780721  0.025090621 
    9900    205.22535   -3.3903061  0.026514898 
   10000    200.23913   -3.3834986  0.025870684 
   10100    197.08753   -3.3812709    0.0254635 
   10200    213.25409   -3.3820289  0.027552203 
   10300     201.9011   -3.3867333  0.026085408 
   10400    206.50531   -3.3799969  0.026680268 
   10500    211.24794   -3.3815161  0.027293011 
   10600    205.49477   -3.3838628  0.026549707 
   10700    197.58521   -3.3860786    0.0255278 
   10800    197.99922   -3.3842272   0.02558129 
   10900    195.63893   -3.3801195  0.025276342 
   11000    197.51916   -3.3857968  0.025519266 
   11100    207.96884   -3.3836739  0.026869354 
   11200    203.97979    -3.380057  0.026353973 
   11300    202.55933   -3.3823431  0.026170451 
   11400    201.71184   -3.3856815  0.026060956 
   11500    202.54062   -3.3874829  0.026168033 
   11600    209.83995   -3.3812462  0.027111099 
   11700    196.89338   -3.3847966  0.025438417 
   11800     208.2908   -3.3854349  0.026910951 
   11900    193.32584   -3.3843936  0.024977494 
   12000    191.87652   -3.3816544  0.024790244 
   12100    200.51002   -3.3824036  0.025905683 
   12200    195.23651   -3.3852923  0.025224351 
   12300    200.64281   -3.3843905  0.025922839 
   12400    196.87057   -3.3814838  0.025435469 
   12500    203.32096   -3.3822529  0.026268854 
   12600    202.74228   -3.3867722  0.026194088 
   12700    202.46174   -3.3812856  0.026157843 
   12800    200.12638   -3.3840027  0.025856116 
   12900     204.6736   -3.3823693  0.026443613 
   13000     193.2432   -3.3852878  0.024966817 
   13100     203.1684   -3.3847504  0.026249142 
   13200    214.02026   -3.3817305  0.027651191 
   13300    187.77456    -3.385969  0.024260274 
   13400    210.73539   -3.3852865  0.027226789 
   13500    207.73549   -3.3815219  0.026839206 
   13600    214.17789   -3.3847191  0.027671557 
   13700    203.79504   -3.3864483  0.026330103 
   13800     195.8178   -3.3842311  0.025299452 
   13900     205.3613   -3.3854858  0.026532462 
   14000      207.043   -3.3861286  0.026749737 
   14100    205.20538   -3.3879974  0.026512317 
   14200    200.00976   -3.3799603   0.02584105 
   14300    203.52461   -3.3828459  0.026295164 
   14400    208.66276   -3.3858671  0.026959008 
   14500    199.19683   -3.3864534   0.02573602 
   14600    203.92914   -3.3832629  0.026347429 
   14700    207.05508   -3.3824816  0.026751297 
   14800     200.9827   -3.3858936  0.025966753 
   14900    202.66832   -3.3851649  0.026184533 
   15000    198.77585   -3.3811346   0.02568163 
   15100    201.42986   -3.3837495  0.026024525 
   15200    215.77685   -3.3850537  0.027878141 
   15300    199.61876   -3.3863424  0.025790532 
   15400    211.04212   -3.3849711  0.027266419 
   15500    197.07644   -3.3836508  0.025462067 
   15600    212.38852   -3.3860233  0.027440372 
   15700    203.12254   -3.3832292  0.026243218 
   15800     185.4005   -3.3780928  0.023953549 
   15900     202.0319   -3.3834809  0.026102308 
   16000     206.6481   -3.3879919  0.026698716 
   16100     194.9455   -3.3847001  0.025186752 
   16200    188.48683   -3.3838984  0.024352299 
   16300    208.32134   -3.3841062  0.026914897 
   16400    213.65459   -3.3861878  0.027603947 
   16500    214.73528   -3.3820662  0.027743571 
   16600    199.41647   -3.3831996  0.025764397 
   16700    196.23328   -3.3862502  0.025353133 
   16800    193.09683   -3.3831944  0.024947906 
   16900    186.85118    -3.384554  0.024140974 
   17000    208.55219   -3.3815318  0.026944723 
   17100    195.16484   -3.3862497   0.02521509 
   17200     213.4509   -3.3845594  0.027577631 
   17300    201.73816   -3.3836446  0.026064357 
   17400    200.93263    -3.383166  0.025960284 
   17500    198.96944   -3.3855047  0.025706641 
   17600    197.66553   -3.3811559  0.025538177 
   17700    193.83102   -3.3829835  0.025042763 
   17800     203.6483   -3.3859335  0.026311145 
   17900    202.51596   -3.3861829  0.026164848 
   18000    189.71184   -3.3793154  0.024510569 
   18100    210.15616   -3.3859095  0.027151953 
   18200    198.56063   -3.3863412  0.025653824 
   18300    192.03036   -3.3845127  0.024810119 
   18400    201.91842   -3.3852769  0.026087647 
   18500    199.53461   -3.3843228   0.02577966 
   18600    193.89344   -3.3875507  0.025050828 
   18700    196.18607   -3.3825913  0.025347033 
   18800    195.88964   -3.3806764  0.025308734 
   18900    200.67901   -3.3844183  0.025927516 
   19000    203.91577   -3.3878364  0.026345702 
   19100    195.36588   -3.3843769  0.025241065 
   19200    211.22476   -3.3844938  0.027290015 
   19300    211.06253   -3.3890097  0.027269056 
   19400    194.60574   -3.3821661  0.025142856 
   19500    203.48136    -3.381954  0.026289577 
   19600    206.81439   -3.3833421    0.0267202 
   19700    202.57095   -3.3846877  0.026171953 
   19800    203.97682   -3.3853124  0.026353589 
   19900    206.80313   -3.3828002  0.026718746 
   20000    191.36167     -3.38461  0.024723726 
Loop time of 56.3369 on 4 procs for 20000 steps with 2112 atoms

Performance: 30.673 ns/day, 0.782 hours/ns, 355.007 timesteps/s
99.1% CPU use with 4 MPI tasks x 1 OpenMP threads

MPI task timing breakdown:
Section |  min time  |  avg time  |  max time  |%varavg| %total
---------------------------------------------------------------
Pair    | 40.611     | 47.431     | 53.89      |  93.2 | 84.19
Neigh   | 0          | 0          | 0          |   0.0 |  0.00
Comm    | 1.4827     | 7.9315     | 14.739     | 228.8 | 14.08
Output  | 0.3054     | 0.30609    | 0.30792    |   0.2 |  0.54
Modify  | 0.35331    | 0.44705    | 0.54529    |  10.6 |  0.79
Other   |            | 0.221      |            |       |  0.39

Nlocal:        528.000 ave         528 max         528 min
Histogram: 4 0 0 0 0 0 0 0 0 0
Nghost:        958.000 ave         958 max         958 min
Histogram: 4 0 0 0 0 0 0 0 0 0
Neighs:         0.00000 ave           0 max           0 min
Histogram: 4 0 0 0 0 0 0 0 0 0
FullNghs:      118984.0 ave      118984 max      118984 min
Histogram: 4 0 0 0 0 0 0 0 0 0

Total # of neighbors = 475936
Ave neighs/atom = 225.34848
Neighbor list builds = 0
Dangerous builds = 0
write_data Ni_$t_$c.data
write_data Ni_200_$c.data
write_data Ni_200_LowCutoff.data
System init for write_data ...
clear
OMP_NUM_THREADS environment is not set. Defaulting to 1 thread. (src/comm.cpp:94)
  using 1 OpenMP thread(s) per MPI task
next b
next c
jump SELF loop2
variable b index "Morse_Shifted_GirifalcoWeizer_1959HighCutoff_Ni__MO_381861218831_004" "Morse_Shifted_GirifalcoWeizer_1959LowCutoff_Ni__MO_322509103239_004" "Morse_Shifted_GirifalcoWeizer_1959MedCutoff_Ni__MO_758825945924_004"
variable c index "HighCutoff" "LowCutoff" "MedCutoff"
units metal
boundary p p p
atom_style atomic
lattice custom 3.5238 a1 1.0 0.0 0.0 a2 0.0 1.0 0.0 a3 0.0 0.0 1.0 basis 0.25 0.25 0.25 basis 0.25 0.75 0.75 basis 0.75 0.25 0.75 basis 0.75 0.75 0.25
Lattice spacing in x,y,z = 3.5238000 3.5238000 3.5238000
region 1 sphere 20.0 20.0 20.0 5.0
region 2 block 0.0 40.0 0.0 40.0 0.0 40.0
create_box 1 2
Created orthogonal box = (0.0000000 0.0000000 0.0000000) to (140.95200 140.95200 140.95200)
  2 by 1 by 2 MPI processor grid
mass 1 58.6934
create_atoms 1 region 1
Created 2112 atoms
  create_atoms CPU = 0.001 seconds
group 1 type 1
2112 atoms in group 1
pair_style kim $b
pair_style kim Morse_Shifted_GirifalcoWeizer_1959MedCutoff_Ni__MO_758825945924_004
pair_coeff * * Ni
neighbor 2.5 bin
neigh_modify every 1 delay 1
dump 1 all atom 100 dump.Ni_$t_$c
dump 1 all atom 100 dump.Ni_200_$c
dump 1 all atom 100 dump.Ni_200_MedCutoff
compute 1 1 pe/atom
compute 2 1 ke/atom
compute ape 1 reduce ave c_1
compute ake 1 reduce ave c_2
thermo_style custom step temp c_ape c_ake
thermo 100
fix 1 1 nvt temp $t $t 0.01 fixedpoint 20.0 20.0 20.0
fix 1 1 nvt temp 200 $t 0.01 fixedpoint 20.0 20.0 20.0
fix 1 1 nvt temp 200 200 0.01 fixedpoint 20.0 20.0 20.0
timestep 0.001
run 20000
Neighbor list info ...
  update every 1 steps, delay 1 steps, check yes
  max neighbors/atom: 2000, page size: 100000
  master list distance cutoff = 10.63295
  ghost atom cutoff = 10.63295
  binsize = 5.316475, bins = 27 27 27
  1 neighbor lists, perpetual/occasional/extra = 1 0 0
  (1) pair kim, perpetual
      attributes: full, newton off, cut 10.63295
      pair build: full/bin/atomonly
      stencil: full/bin/3d
      bin: standard
Per MPI rank memory allocation (min/avg/max) = 4.725 | 4.725 | 4.725 Mbytes
Step Temp c_ape c_ake 
       0            0   -3.5711513            0 
     100    186.46245   -3.5862419  0.024090751 
     200     205.7386   -3.5718855   0.02658121 
     300    202.49786   -3.5690776  0.026162509 
     400    196.00088   -3.5833771  0.025323106 
     500    187.69403   -3.5740181   0.02424987 
     600    200.43525   -3.5744216  0.025896022 
     700    198.01411   -3.5818838  0.025583213 
     800    205.61985   -3.5765738  0.026565867 
     900    196.66472   -3.5773521  0.025408874 
    1000    197.85963   -3.5813488  0.025563255 
    1100    192.94967   -3.5698516  0.024928893 
    1200    209.18357   -3.5792906  0.027026296 
    1300    194.10719   -3.5811773  0.025078443 
    1400    202.48836   -3.5784541  0.026161282 
    1500    194.23092   -3.5766805  0.025094429 
    1600    195.83636   -3.5829658  0.025301851 
    1700     197.0297   -3.5772686  0.025456028 
    1800    205.92066   -3.5774874  0.026604731 
    1900    200.38249   -3.5734144  0.025889206 
    2000    220.06611   -3.5816173  0.028432308 
    2100    202.11533   -3.5810899  0.026113087 
    2200    193.12507   -3.5735491  0.024951554 
    2300    205.12269   -3.5783616  0.026501635 
    2400    193.95174   -3.5783963  0.025058359 
    2500    214.93717   -3.5771356  0.027769655 
    2600    198.76012    -3.579052  0.025679597 
    2700     199.5239   -3.5783502  0.025778276 
    2800     197.1506   -3.5798211  0.025471649 
    2900    214.86768   -3.5810006  0.027760677 
    3000    212.35522   -3.5738167   0.02743607 
    3100    204.22519   -3.5829603  0.026385679 
    3200    197.31122   -3.5745877  0.025492401 
    3300    205.75989   -3.5748616   0.02658396 
    3400    203.26416   -3.5806277  0.026261515 
    3500    196.98775   -3.5760173  0.025450609 
    3600    199.94747   -3.5792457  0.025833002 
    3700     195.5143   -3.5788741   0.02526024 
    3800    209.54303   -3.5801442  0.027072738 
    3900    196.88506   -3.5797932  0.025437341 
    4000    208.33989   -3.5764088  0.026917294 
    4100    220.75647   -3.5763918  0.028521502 
    4200    203.07003   -3.5815301  0.026236433 
    4300    216.99044   -3.5780126  0.028034936 
    4400    195.40243   -3.5770156  0.025245787 
    4500    190.76002   -3.5772825  0.024645993 
    4600     197.9246   -3.5795829  0.025571649 
    4700    201.37331   -3.5760327  0.026017218 
    4800    192.85915   -3.5745501  0.024917198 
    4900    193.84236   -3.5776847  0.025044227 
    5000     191.6061   -3.5816289  0.024755306 
    5100    184.93019   -3.5776762  0.023892785 
    5200    208.57359   -3.5788188  0.026947487 
    5300    197.36476   -3.5818686  0.025499318 
    5400    202.67669   -3.5826175  0.026185614 
    5500       190.71   -3.5766793   0.02463953 
    5600    197.56792   -3.5749774  0.025525566 
    5700    207.15201   -3.5790952   0.02676382 
    5800    202.05418   -3.5781435  0.026105187 
    5900    203.49501   -3.5773995   0.02629134 
    6000    200.70915   -3.5765323   0.02593141 
    6100    205.22636   -3.5814798  0.026515029 
    6200    206.85822   -3.5743103  0.026725863 
    6300    201.92232   -3.5777521   0.02608815 
    6400    195.73135   -3.5781975  0.025288284 
    6500    196.92125   -3.5788746  0.025442017 
    6600    208.85616   -3.5797592  0.026983996 
    6700    210.78468   -3.5754995  0.027233158 
    6800    202.88539   -3.5780086  0.026212578 
    6900    191.13126   -3.5806322  0.024693956 
    7000    204.85803   -3.5724137  0.026467441 
    7100    207.33213   -3.5764828  0.026787091 
    7200    193.76486   -3.5786782  0.025034215 
    7300    195.17805   -3.5795797  0.025216797 
    7400    193.64238   -3.5791227  0.025018391 
    7500    194.72793   -3.5789823  0.025158643 
    7600     196.0712   -3.5818776  0.025332192 
    7700    197.11097   -3.5760594  0.025466529 
    7800    198.65186   -3.5748844   0.02566561 
    7900    193.80095   -3.5797333  0.025038878 
    8000    210.29176   -3.5790892  0.027169473 
    8100    191.84811   -3.5768148  0.024786572 
    8200    213.51868   -3.5792925  0.027586387 
    8300    191.52946   -3.5760403  0.024745404 
    8400    189.03738     -3.58003  0.024423429 
    8500    205.41715   -3.5716301  0.026539679 
    8600    204.10519   -3.5791082  0.026370175 
    8700    197.58792   -3.5804167   0.02552815 
    8800    198.24818   -3.5777809  0.025613456 
    8900    182.65589   -3.5762376  0.023598948 
    9000    205.37601   -3.5791554  0.026534363 
    9100    200.22488   -3.5803515  0.025868843 
    9200    200.67133   -3.5743323  0.025926524 
    9300    202.15423   -3.5773901  0.026118112 
    9400    201.88894   -3.5790049  0.026083838 
    9500    207.15568   -3.5799446  0.026764294 
    9600    184.54005    -3.576748   0.02384238 
    9700    206.43702   -3.5797614  0.026671444 
    9800    196.36905   -3.5781799  0.025370674 
    9900     189.9055   -3.5788942   0.02453559 
   10000    197.15593   -3.5751947  0.025472338 
   10100    194.79984   -3.5794978  0.025167933 
   10200    206.33649   -3.5785852  0.026658457 
   10300    203.01941   -3.5789839  0.026229893 
   10400    205.35592   -3.5790566  0.026531767 
   10500    209.17872   -3.5782401  0.027025669 
   10600    190.54408   -3.5784289  0.024618094 
   10700    200.35453   -3.5743213  0.025885593 
   10800    206.79518   -3.5810494  0.026717718 
   10900    197.62312   -3.5778989  0.025532698 
   11000    189.80009   -3.5779474  0.024521971 
   11100    182.76634    -3.576851  0.023613218 
   11200    187.08756   -3.5786448  0.024171515 
   11300    189.95373   -3.5799903  0.024541821 
   11400    190.66294   -3.5747611  0.024633451 
   11500      195.368    -3.576419  0.025241338 
   11600    190.01807   -3.5787378  0.024550133 
   11700    206.06227   -3.5783256  0.026623027 
   11800    198.95622   -3.5782538  0.025704933 
   11900    191.15491   -3.5769364  0.024697012 
   12000    199.53442   -3.5791166  0.025779636 
   12100    187.09981   -3.5754222  0.024173097 
   12200    194.40718   -3.5767524  0.025117203 
   12300    202.63845   -3.5769186  0.026180673 
   12400     200.4169   -3.5779046  0.025893651 
   12500    185.34947    -3.578505  0.023946956 
   12600    204.24665   -3.5764483  0.026388451 
   12700    200.95799   -3.5791492   0.02596356 
   12800    201.46324   -3.5783778  0.026028837 
   12900    206.91883   -3.5739819  0.026733694 
   13000    200.54542   -3.5740187  0.025910256 
   13100    199.97049   -3.5808246  0.025835976 
   13200    192.85869   -3.5773806  0.024917139 
   13300    179.14449   -3.5785088  0.023145279 
   13400    211.38034   -3.5759211  0.027310116 
   13500    202.89139   -3.5811177  0.026213352 
   13600    201.60896   -3.5764587  0.026047664 
   13700    193.80628   -3.5738298  0.025039566 
   13800    200.27961   -3.5810202  0.025875914 
   13900    208.30795   -3.5767714  0.026913167 
   14000    204.61879   -3.5781053  0.026436531 
   14100    202.55909   -3.5761905   0.02617042 
   14200     197.4578   -3.5812539   0.02551134 
   14300    201.90615   -3.5775503  0.026086062 
   14400    213.87408   -3.5778661  0.027632305 
   14500    190.93257   -3.5778422  0.024668286 
   14600    214.05788   -3.5799253  0.027656052 
   14700    204.20686   -3.5790095   0.02638331 
   14800    197.71072   -3.5763654  0.025544017 
   14900    199.23502   -3.5798167  0.025740954 
   15000    189.91926   -3.5779249  0.024537368 
   15100    196.52079   -3.5762437  0.025390278 
   15200    199.36786   -3.5769188  0.025758116 
   15300    214.06833   -3.5775639  0.027657401 
   15400    202.94976   -3.5784346  0.026220894 
   15500    190.34254   -3.5786592  0.024592054 
   15600    196.63345   -3.5795776  0.025404834 
   15700    190.73351   -3.5793031  0.024642567 
   15800    189.05011    -3.576159  0.024425075 
   15900    210.25837   -3.5774407  0.027165159 
   16000     206.2998   -3.5779239  0.026653716 
   16100    196.96873    -3.578442  0.025448151 
   16200     196.0972   -3.5792241  0.025335551 
   16300    187.80604   -3.5742786  0.024264342 
   16400    211.75741   -3.5799333  0.027358834 
   16500     195.6325    -3.577344  0.025275513 
   16600    204.06604   -3.5771216  0.026365117 
   16700    213.99469   -3.5773867  0.027647888 
   16800    207.39974   -3.5785193  0.026795827 
   16900    189.56241   -3.5802207  0.024491263 
   17000    197.32349   -3.5763756  0.025493986 
   17100    195.04639   -3.5825569  0.025199787 
   17200    213.33625   -3.5801075  0.027562818 
   17300    185.38582   -3.5734402  0.023951652 
   17400    199.42004   -3.5773609  0.025764859 
   17500    192.44523   -3.5791058   0.02486372 
   17600    193.06663    -3.578892  0.024944004 
   17700    186.84942   -3.5777798  0.024140747 
   17800    207.31246   -3.5785993   0.02678455 
   17900    208.85156   -3.5808442  0.026983401 
   18000    193.27247   -3.5744862  0.024970598 
   18100    191.05258    -3.576073  0.024683792 
   18200    200.94786   -3.5775891   0.02596225 
   18300    199.09219   -3.5801788    0.0257225 
   18400    205.15545    -3.579157  0.026505868 
   18500    194.56394    -3.579582  0.025137455 
   18600    197.37731   -3.5788931  0.025500939 
   18700     191.8047   -3.5756834  0.024780964 
   18800    220.28289   -3.5746897  0.028460316 
   18900    208.81323   -3.5779963  0.026978449 
   19000    201.54192   -3.5807982  0.026039003 
   19100    198.63916   -3.5809734  0.025663969 
   19200       200.55   -3.5745802  0.025910848 
   19300     203.1405   -3.5820953  0.026245538 
   19400    198.04547   -3.5793333  0.025587266 
   19500    206.82167   -3.5741239  0.026721141 
   19600    196.05258   -3.5807693  0.025329786 
   19700    192.46775   -3.5750673   0.02486663 
   19800    196.92029   -3.5819958  0.025441893 
   19900    201.62735   -3.5800157  0.026050041 
   20000    190.81833   -3.5759947  0.024653527 
Loop time of 90.6163 on 4 procs for 20000 steps with 2112 atoms

Performance: 19.069 ns/day, 1.259 hours/ns, 220.711 timesteps/s
99.3% CPU use with 4 MPI tasks x 1 OpenMP threads

MPI task timing breakdown:
Section |  min time  |  avg time  |  max time  |%varavg| %total
---------------------------------------------------------------
Pair    | 65.931     | 76.929     | 87.977     | 122.8 | 84.90
Neigh   | 0          | 0          | 0          |   0.0 |  0.00
Comm    | 1.5593     | 12.596     | 23.579     | 304.2 | 13.90
Output  | 0.37822    | 0.37893    | 0.38082    |   0.2 |  0.42
Modify  | 0.37638    | 0.47876    | 0.58313    |  10.9 |  0.53
Other   |            | 0.2334     |            |       |  0.26

Nlocal:        528.000 ave         528 max         528 min
Histogram: 4 0 0 0 0 0 0 0 0 0
[...]
   10000    2041.7194   -3.0673252   0.26378798 
   10100    2052.2867   -3.0654425   0.26515328 
   10200    2076.2226   -3.0618375   0.26824576 
   10300    1926.4591   -3.0597506   0.24889648 
   10400    1925.6472   -3.0624536   0.24879158 
   10500    1987.3203   -3.0504967   0.25675968 
   10600     2009.531   -3.0553004   0.25962927 
   10700    2036.2115   -3.0536376   0.26307638 
   10800     2000.726   -3.0608228   0.25849168 
   10900    1968.7844   -3.0661775   0.25436486 
   11000    2012.2747   -3.0588567   0.25998377 
   11100    2023.1149   -3.0635809    0.2613843 
   11200    2059.5915   -3.0489049   0.26609705 
   11300     2010.453   -3.0470133    0.2597484 
   11400     2035.342   -3.0540634   0.26296403 
   11500    1955.1224   -3.0494075   0.25259975 
   11600    1967.9156   -3.0700947   0.25425262 
   11700    2007.1184   -3.0616396   0.25931758 
   11800    1984.1138   -3.0754648    0.2563454 
   11900    1987.2294   -3.0704476   0.25674794 
   12000    2008.2479   -3.0616274   0.25946351 
   12100    2003.6793   -3.0636732   0.25887324 
   12200    1992.4146    -3.044315   0.25741786 
   12300     2032.425   -3.0541342   0.26258716 
   12400    1986.8551   -3.0519598   0.25669958 
   12500    1956.7847   -3.0640227   0.25281451 
   12600    2006.0934   -3.0707241   0.25918514 
   12700    2000.4482   -3.0678648   0.25845579 
   12800    2051.6433   -3.0681125   0.26507014 
   12900    1958.8077   -3.0684857   0.25307588 
   13000    1976.4784   -3.0675357   0.25535892 
   13100     1985.195    -3.058736    0.2564851 
   13200     1976.071   -3.0761132   0.25530628 
   13300    1963.2107   -3.0624019   0.25364474 
   13400    1947.7908    -3.063756   0.25165252 
   13500    2007.7168   -3.0693399   0.25939489 
   13600     2010.863   -3.0732214   0.25980138 
   13700    2021.4017   -3.0806434   0.26116296 
   13800    1930.6307   -3.0725218   0.24943544 
   13900    2022.8978   -3.0703936   0.26135626 
   14000    2034.4611   -3.0735564   0.26285023 
   14100    1969.5967   -3.0765545   0.25446981 
   14200      1999.01   -3.0780972   0.25826997 
   14300    1957.2491   -3.0741491   0.25287452 
   14400    1968.2214   -3.0746027   0.25429212 
   14500    2028.3397    -3.083434   0.26205935 
   14600    1971.2523   -3.0648142   0.25468371 
   14700    2006.7489   -3.0738816   0.25926984 
   14800    1974.0299   -3.0656884   0.25504257 
   14900    2052.2253   -3.0577185   0.26514534 
   15000    2040.7013    -3.064211   0.26365645 
   15100    1970.0821   -3.0641172   0.25453253 
   15200    1985.7981   -3.0629044   0.25656301 
   15300    2034.4107   -3.0765346   0.26284372 
   15400    1984.0558   -3.0774715   0.25633791 
   15500    1960.0548   -3.0666897   0.25323701 
   15600    2056.3335   -3.0645585   0.26567612 
   15700    1971.1915   -3.0699907   0.25467585 
   15800    2003.8683   -3.0664482   0.25889767 
   15900     1996.961   -3.0696247   0.25800524 
   16000    2057.2627   -3.0702123   0.26579616 
   16100    1964.7122   -3.0728209   0.25383873 
   16200    2079.0833   -3.0756209   0.26861537 
   16300    2024.5865   -3.0678233   0.26157444 
   16400     1974.044   -3.0676393   0.25504439 
   16500    2010.3171   -3.0719352   0.25973084 
   16600    1968.0711   -3.0583308    0.2542727 
   16700    1962.8173   -3.0696514   0.25359392 
   16800    2007.8073   -3.0677104   0.25940658 
   16900    2003.2233   -3.0693541   0.25881434 
   17000    2007.3012   -3.0676194   0.25934119 
   17100    1992.0662   -3.0568376   0.25737284 
   17200    2010.5063    -3.068302   0.25975529 
   17300     1998.548   -3.0576892   0.25821028 
   17400    1982.5867   -3.0536653   0.25614811 
   17500    1998.9053   -3.0554854   0.25825645 
   17600    1953.9047   -3.0603533   0.25244242 
   17700    2001.5584   -3.0594697   0.25859923 
   17800    2020.7112   -3.0673742   0.26107375 
   17900    1980.0484   -3.0701248   0.25582016 
   18000    2035.6097   -3.0541414   0.26299862 
   18100    2001.9451    -3.067285   0.25864919 
   18200     2012.492   -3.0629644   0.26001183 
   18300    1997.3831   -3.0697192   0.25805978 
   18400    2018.3058   -3.0590278   0.26076297 
   18500    2017.7796   -3.0689476   0.26069499 
   18600    2064.1607   -3.0723993   0.26668738 
   18700    1986.9507   -3.0713934   0.25671193 
   18800    2035.7237   -3.0707856   0.26301334 
   18900    1957.9255   -3.0633051    0.2529619 
   19000    2015.7369   -3.0671904   0.26043108 
   19100    2005.1121   -3.0605269   0.25905836 
   19200    1963.3725   -3.0631265   0.25366564 
   19300    1969.1401   -3.0586543   0.25441082 
   19400    1999.3252   -3.0715232    0.2583107 
   19500    1991.7862   -3.0672274   0.25733667 
   19600    2016.0262   -3.0619723   0.26046845 
   19700    1980.4485   -3.0678052   0.25587185 
   19800    2047.3565   -3.0641204   0.26451629 
   19900    1986.5964   -3.0582492   0.25666615 
   20000    2037.0658   -3.0711217   0.26318674 
Loop time of 55.542 on 4 procs for 20000 steps with 2112 atoms

Performance: 31.112 ns/day, 0.771 hours/ns, 360.088 timesteps/s
98.9% CPU use with 4 MPI tasks x 1 OpenMP threads

MPI task timing breakdown:
Section |  min time  |  avg time  |  max time  |%varavg| %total
---------------------------------------------------------------
Pair    | 37.702     | 44.537     | 51.537     | 100.5 | 80.19
Neigh   | 0.98778    | 1.2114     | 1.4307     |  18.7 |  2.18
Comm    | 1.637      | 8.8374     | 15.925     | 233.3 | 15.91
Output  | 0.30878    | 0.30946    | 0.31129    |   0.2 |  0.56
Modify  | 0.34904    | 0.4234     | 0.50224    |   9.8 |  0.76
Other   |            | 0.2229     |            |       |  0.40

Nlocal:        528.000 ave         541 max         521 min
Histogram: 1 1 0 1 0 0 0 0 0 1
Nghost:        948.500 ave         966 max         930 min
Histogram: 1 0 1 0 0 0 0 1 0 1
Neighs:         0.00000 ave           0 max           0 min
Histogram: 4 0 0 0 0 0 0 0 0 0
FullNghs:      95056.0 ave       97189 max       93978 min
Histogram: 2 0 1 0 0 0 0 0 0 1

Total # of neighbors = 380224
Ave neighs/atom = 180.03030
Neighbor list builds = 306
Dangerous builds = 0
write_data Ni_$t_$c.data
write_data Ni_2000_$c.data
write_data Ni_2000_LowCutoff.data
System init for write_data ...
clear
OMP_NUM_THREADS environment is not set. Defaulting to 1 thread. (src/comm.cpp:94)
  using 1 OpenMP thread(s) per MPI task
next b
next c
jump SELF loop2
variable b index "Morse_Shifted_GirifalcoWeizer_1959HighCutoff_Ni__MO_381861218831_004" "Morse_Shifted_GirifalcoWeizer_1959LowCutoff_Ni__MO_322509103239_004" "Morse_Shifted_GirifalcoWeizer_1959MedCutoff_Ni__MO_758825945924_004"
variable c index "HighCutoff" "LowCutoff" "MedCutoff"
units metal
boundary p p p
atom_style atomic
lattice custom 3.5238 a1 1.0 0.0 0.0 a2 0.0 1.0 0.0 a3 0.0 0.0 1.0 basis 0.25 0.25 0.25 basis 0.25 0.75 0.75 basis 0.75 0.25 0.75 basis 0.75 0.75 0.25
Lattice spacing in x,y,z = 3.5238000 3.5238000 3.5238000
region 1 sphere 20.0 20.0 20.0 5.0
region 2 block 0.0 40.0 0.0 40.0 0.0 40.0
create_box 1 2
Created orthogonal box = (0.0000000 0.0000000 0.0000000) to (140.95200 140.95200 140.95200)
  2 by 1 by 2 MPI processor grid
mass 1 58.6934
create_atoms 1 region 1
Created 2112 atoms
  create_atoms CPU = 0.000 seconds
group 1 type 1
2112 atoms in group 1
pair_style kim $b
pair_style kim Morse_Shifted_GirifalcoWeizer_1959MedCutoff_Ni__MO_758825945924_004
pair_coeff * * Ni
neighbor 2.5 bin
neigh_modify every 1 delay 1
dump 1 all atom 100 dump.Ni_$t_$c
dump 1 all atom 100 dump.Ni_2000_$c
dump 1 all atom 100 dump.Ni_2000_MedCutoff
compute 1 1 pe/atom
compute 2 1 ke/atom
compute ape 1 reduce ave c_1
compute ake 1 reduce ave c_2
thermo_style custom step temp c_ape c_ake
thermo 100
fix 1 1 nvt temp $t $t 0.01 fixedpoint 20.0 20.0 20.0
fix 1 1 nvt temp 2000 $t 0.01 fixedpoint 20.0 20.0 20.0
fix 1 1 nvt temp 2000 2000 0.01 fixedpoint 20.0 20.0 20.0
timestep 0.001
run 20000
Neighbor list info ...
  update every 1 steps, delay 1 steps, check yes
  max neighbors/atom: 2000, page size: 100000
  master list distance cutoff = 10.63295
  ghost atom cutoff = 10.63295
  binsize = 5.316475, bins = 27 27 27
  1 neighbor lists, perpetual/occasional/extra = 1 0 0
  (1) pair kim, perpetual
      attributes: full, newton off, cut 10.63295
      pair build: full/bin/atomonly
      stencil: full/bin/3d
      bin: standard
Per MPI rank memory allocation (min/avg/max) = 4.725 | 4.725 | 4.725 Mbytes
Step Temp c_ape c_ake 
       0            0   -3.5711513            0 
     100    1929.3714   -3.4445544   0.24927274 
     200    1940.6866   -3.2580087   0.25073465 
     300     2095.275    -3.192331   0.27070731 
     400    1873.1811   -3.1453118   0.24201302 
     500    1919.3059   -3.0516911   0.24797229 
     600    2174.8901   -3.1251343    0.2809935 
     700    2035.0934   -3.2986203   0.26293192 
     800    1969.3609   -3.3445734   0.25443934 
     900    1916.0686   -3.2841782   0.24755404 
    1000    1860.9186   -3.2952367   0.24042872 
    1100    2152.7976   -3.3598549   0.27813917 
    1200    1943.8691   -3.2613525   0.25114584 
    1300    1902.0934   -3.1833519   0.24574846 
    1400    1972.6164   -3.1164792   0.25485995 
    1500     2142.192   -3.1933365   0.27676894 
    1600    1945.6992   -3.2472257   0.25138228 
    1700    1928.6356   -3.2957122   0.24917769 
    1800    1963.9081    -3.291037   0.25373485 
    1900    2025.8623    -3.256381   0.26173927 
    2000    2037.8216    -3.313877    0.2632844 
    2100    1776.2868   -3.2849626   0.22949438 
    2200    1956.4755   -3.2296379   0.25277457 
    2300    1860.3352   -3.1622491   0.24035333 
    2400    2012.2012   -3.2035117   0.25997427 
    2500    2104.9376   -3.2499232   0.27195571 
    2600    2125.8732   -3.3239928   0.27466056 
    2700    1937.5529   -3.2753222   0.25032979 
    2800     2008.195   -3.2967358   0.25945667 
    2900    2100.3539   -3.3154765   0.27136351 
    3000    2004.9298   -3.2871773    0.2590348 
    3100    1998.3799   -3.2401022   0.25818857 
    3200    1921.8933   -3.1979143   0.24830659 
    3300    1996.9091   -3.2330934   0.25799854 
    3400     2095.736    -3.277678   0.27076688 
    3500    1952.5539   -3.3143342    0.2522679 
    3600     1904.697   -3.3176175   0.24608484 
    3700    2077.4887   -3.3183038   0.26840934 
    3800    2026.0483   -3.2767029    0.2617633 
    3900    1612.8739   -3.2441897   0.20838161 
    4000    1986.3487   -3.2288391   0.25663415 
    4100    1902.6789   -3.2659635    0.2458241 
    4200    1983.8038    -3.280099   0.25630535 
    4300    1920.5133   -3.2493436   0.24812828 
    4400    2016.2452   -3.3277186   0.26049675 
    4500     1919.672   -3.3302638   0.24801959 
    4600    1847.6922   -3.3175181   0.23871988 
    4700    2036.8322   -3.3028996   0.26315657 
    4800     1983.828   -3.2957193   0.25630848 
    4900    1996.6208   -3.2424168   0.25796129 
    5000    2031.2588   -3.2642375   0.26243649 
    5100    2023.4861   -3.2717358   0.26143227 
    5200    2025.7379   -3.3096912    0.2617232 
    5300    2006.3169   -3.3125294   0.25921402 
    5400    2049.5365   -3.3038275   0.26479794 
    5500    2001.5541   -3.3086612   0.25859868 
    5600    1998.4798   -3.2800209   0.25820148 
    5700    2019.3534    -3.246687   0.26089833 
    5800    2081.5593   -3.2367315   0.26893526 
    5900    2041.5034   -3.2516647   0.26376008 
    6000    1973.1454   -3.2819321   0.25492829 
    6100    1979.4574    -3.291232    0.2557438 
    6200     1985.326   -3.2955566   0.25650202 
    6300    2010.6414   -3.2960699   0.25977274 
    6400    2051.0725   -3.2808375    0.2649964 
    6500    2046.5925   -3.2792472   0.26441759 
    6600    1989.9501   -3.2434554   0.25709945 
    6700    2039.5831   -3.2440266   0.26351199 
    6800    2011.0648   -3.2698195   0.25982744 
    6900    2015.5815    -3.282417     0.260411 
    7000    2033.2828    -3.294003   0.26269798 
    7100     2004.744   -3.2921892    0.2590108 
    7200    2055.1908   -3.2938944   0.26552847 
    7300    1951.3517    -3.270596   0.25211257 
    7400    1977.1989   -3.2531299     0.255452 
    7500     2017.717   -3.2317961    0.2606869 
    7600    1975.4185   -3.2494517   0.25522198 
    7700    2004.8854   -3.2713129   0.25902907 
    7800    2010.4185   -3.2914322   0.25974394 
    7900    2014.8112   -3.2913519   0.26031148 
    8000    1939.1751   -3.2929362   0.25053937 
    8100    1992.3864   -3.2822747   0.25741421 
    8200    1949.4778   -3.2614742   0.25187046 
    8300    2007.5399   -3.2526038   0.25937204 
    8400     2004.101   -3.2599142   0.25892773 
    8500    1975.2902   -3.2682947    0.2552054 
    8600    1963.7062   -3.2757414   0.25370876 
    8700    1993.8602   -3.2822498   0.25760463 
    8800    2041.2701   -3.2966073   0.26372994 
    8900    2036.9468   -3.2925123   0.26317138 
    9000    2020.8369   -3.2677529   0.26108999 
    9100    2022.7051   -3.2597195   0.26133136 
    9200    2080.4472   -3.2522302   0.26879158 
    9300    2062.3109   -3.2554691   0.26644839 
    9400     1991.339   -3.2628142   0.25727889 
    9500    1978.3197   -3.2735114   0.25559681 
    9600    2005.3897   -3.2727558   0.25909423 
    9700    1969.5042   -3.2762029   0.25445785 
    9800    1979.1023   -3.2548234   0.25569793 
    9900    2006.9267   -3.2535073   0.25929281 
   10000    2005.4175   -3.2559967   0.25909782 
   10100    1952.1539   -3.2468831   0.25221622 
   10200    2043.3481   -3.2654452   0.26399842 
   10300    2035.2972   -3.2743826   0.26295825 
   10400    1994.4346   -3.2818984   0.25767884 
   10500    1986.7623   -3.2790991   0.25668758 
   10600    2004.2621   -3.2812627   0.25894854 
   10700    1991.8804   -3.2744684   0.25734885 
   10800    1992.1952   -3.2569317   0.25738952 
   10900    1960.3684   -3.2598623   0.25327753 
   11000    1945.8981   -3.2627393   0.25140798 
   11100    2004.0275   -3.2642481   0.25891823 
   11200    2017.1038   -3.2640346   0.26060768 
   11300    1987.8948    -3.271488    0.2568339 
   11400    1994.7567   -3.2722236   0.25772046 
   11500    1963.2876   -3.2707715   0.25365468 
   11600    2005.4574   -3.2711428   0.25910297 
   11700    1972.3286   -3.2609654   0.25482277 
   11800    1979.0188   -3.2676883   0.25568713 
   11900    2002.9904   -3.2640446   0.25878424 
   12000    2071.8797    -3.267508   0.26768467 
   12100    2041.2474   -3.2693983   0.26372701 
   12200    1982.4665     -3.26598   0.25613258 
   12300    1958.3989   -3.2772819   0.25302306 
   12400    2006.3762   -3.2733163   0.25922168 
   12500    2004.7155   -3.2610841   0.25900712 
   12600     2025.837   -3.2680767   0.26173599 
   12700    1941.6333    -3.266124   0.25085696 
   12800     2036.439   -3.2727438   0.26310577 
   12900    2014.7335   -3.2769514   0.26030143 
   13000    1963.3197   -3.2642734   0.25365883 
   13100    1955.8332   -3.2714487   0.25269158 
   13200    1974.8425   -3.2710166   0.25514756 
   13300    2075.4102   -3.2758495    0.2681408 
   13400    2031.2248   -3.2771263    0.2624321 
   13500    1964.9981   -3.2801324   0.25387568 
   13600    1980.4915   -3.2738192   0.25587741 
   13700    2022.1324   -3.2717194   0.26125737 
   13800    1986.4004   -3.2765135   0.25664083 
   13900    2054.1262   -3.2772216   0.26539093 
   14000    2027.7281   -3.2808459   0.26198032 
   14100    2011.6739   -3.2774223   0.25990614 
   14200     2044.978   -3.2706647   0.26420899 
   14300    2000.1093   -3.2703258     0.258412 
   14400    2106.1589   -3.2683892   0.27211351 
   14500    2005.9061   -3.2715299   0.25916094 
   14600    2025.6108   -3.2755912   0.26170677 
   14700    1939.6272   -3.2762541   0.25059779 
   14800    2025.0537   -3.2892665    0.2616348 
   14900    2013.2091   -3.2770839   0.26010448 
   15000    2082.4176   -3.2819007   0.26904615 
   15100    1951.2465   -3.2798615   0.25209899 
   15200    2033.9336   -3.2718159   0.26278207 
   15300      2002.74   -3.2847466   0.25875188 
   15400    1927.5921   -3.2743912   0.24904286 
   15500    2009.5181   -3.2707558   0.25962761 
   15600    1960.0538    -3.273753   0.25323687 
   15700    1995.9123   -3.2728906   0.25786976 
   15800    1993.3764   -3.2743739   0.25754213 
   15900    2084.7363   -3.2712047   0.26934572 
   16000    2026.1867    -3.264884   0.26178118 
   16100    1995.9359   -3.2749217   0.25787281 
   16200    2067.9596   -3.2725379    0.2671782 
   16300     1972.925   -3.2771738   0.25489982 
   16400    2024.9884   -3.2713192   0.26162636 
   16500     2009.144   -3.2670235   0.25957927 
   16600    2011.9765    -3.270437   0.25994523 
   16700    2002.6137   -3.2799012   0.25873557 
   16800    1959.4098   -3.2677368   0.25315367 
   16900    2060.0911   -3.2763957    0.2661616 
   17000    2008.1676   -3.2667266   0.25945313 
   17100    2029.3395   -3.2698176   0.26218851 
   17200    1989.1358   -3.2705861   0.25699424 
   17300    1933.4091   -3.2746287   0.24979441 
   17400    2030.4491    -3.270998   0.26233188 
   17500    1996.2868     -3.26659   0.25791814 
   17600    2013.3494   -3.2649846   0.26012261 
   17700    1975.0742   -3.2686325    0.2551775 
   17800     2063.749   -3.2678156   0.26663419 
   17900    1966.7118   -3.2686346   0.25409708 
   18000    2009.6152   -3.2722377   0.25964015 
   18100    1988.9606   -3.2785311    0.2569716 
   18200    2029.9524   -3.2730832   0.26226771 
   18300    2019.9302   -3.2669351   0.26097285 
   18400     2064.228    -3.282875   0.26669607 
   18500    1965.5028    -3.263781   0.25394088 
   18600    2010.9835     -3.26218   0.25981694 
   18700    1950.7273   -3.2697363   0.25203191 
   18800    1996.6911   -3.2724145   0.25797038 
   18900    1955.3331   -3.2729809   0.25262696 
   19000    2024.3521   -3.2722042   0.26154416 
   19100    2007.5737   -3.2720155    0.2593764 
   19200    2075.4096   -3.2740909   0.26814072 
   19300     2000.747    -3.278788   0.25849439 
   19400    2017.3333   -3.2704394   0.26063733 
   19500    1976.3726   -3.2811172   0.25534525 
   19600    2033.1729    -3.266858   0.26268379 
   19700    1979.5975   -3.2800156    0.2557619 
   19800    2052.2689   -3.2810252   0.26515096 
   19900    2051.1424   -3.2729956   0.26500543 
   20000     2013.805   -3.2723399   0.26018148 
Loop time of 87.7549 on 4 procs for 20000 steps with 2112 atoms

Performance: 19.691 ns/day, 1.219 hours/ns, 227.908 timesteps/s
99.5% CPU use with 4 MPI tasks x 1 OpenMP threads

MPI task timing breakdown:
Section |  min time  |  avg time  |  max time  |%varavg| %total
---------------------------------------------------------------
Pair    | 60.367     | 71.906     | 83.333     | 133.1 | 81.94
Neigh   | 1.1663     | 1.4733     | 1.7918     |  25.2 |  1.68
Comm    | 1.6354     | 13.414     | 25.267     | 317.0 | 15.29
Output  | 0.34353    | 0.34422    | 0.34598    |   0.2 |  0.39
Modify  | 0.32408    | 0.39604    | 0.48042    |  10.5 |  0.45
Other   |            | 0.2208     |            |       |  0.25

Nlocal:        528.000 ave         539 max         515 min
Histogram: 1 0 0 0 1 0 0 1 0 1
Nghost:        1146.25 ave        1156 max        1132 min
Histogram: 1 0 0 0 0 1 0 0 1 1
Neighs:         0.00000 ave           0 max           0 min
Histogram: 4 0 0 0 0 0 0 0 0 0
FullNghs:      150280.0 ave      152596 max      146251 min
Histogram: 1 0 0 0 0 0 0 1 1 1

Total # of neighbors = 601120
Ave neighs/atom = 284.62121
Neighbor list builds = 293
Dangerous builds = 0
write_data Ni_$t_$c.data
write_data Ni_2000_$c.data
write_data Ni_2000_MedCutoff.data
System init for write_data ...
clear
OMP_NUM_THREADS environment is not set. Defaulting to 1 thread. (src/comm.cpp:94)
  using 1 OpenMP thread(s) per MPI task
next b
next c
jump SELF loop2
clear
OMP_NUM_THREADS environment is not set. Defaulting to 1 thread. (src/comm.cpp:94)
  using 1 OpenMP thread(s) per MPI task
next a
jump SELF loop1
variable a delete
print "Done!"
Done!
Total wall time: 1:36:28
