LAMMPS (24 Dec 2020)
OMP_NUM_THREADS environment is not set. Defaulting to 1 thread. (src/comm.cpp:94)
  using 1 OpenMP thread(s) per MPI task
variable dt equal 0.0001
variable t index 900 1000 1500
label loop1
units metal
boundary m m m
atom_style atomic
lattice custom 6.711 a1 0.3671583967 0 0 a2 0.1835791983 0.3179684987 0 a3 0 0 1 basis 0.1 0.1 0.05 basis 0.433 0.433 0.55
Lattice spacing in x,y,z = 3.6960000 2.1338866 6.7110000
region 1 block 10.0 30.0 10.0 60.0 10.0 30.0 units lattice
region 2 cylinder y 20.0 20.0 2.5 27.0 43.0 units lattice
region 3 cylinder y 20.0 20.0 3.2 24.0 43.0 units lattice
region 4 cylinder y 20.0 20.0 2.5 20.0 27.0 units lattice
region 5 cylinder y 20.0 20.0 3.8 44.0 48.0 units lattice
region 6 cylinder y 20.0 20.0 2.5 20.0 43.0 units lattice
region 7 cylinder y 20.0 20.0 4.45 44.0 48.0 units lattice
region 8 cylinder y 20.0 20.2 3.2 20.0 23.0 units lattice
region 9 cylinder y 20.0 20.0 3.2 43.0 44.0 units lattice
region 10 cylinder y 20.0 20.0 3.8 43.0 44.0 units lattice
region 11 cylinder y 20.0 20.0 3.8 48.0 49.0 units lattice
region 12 cylinder y 20.0 20.2 3.8 19.0 20.0 units lattice
create_box 2 1
Created orthogonal box = (36.960000 21.338866 67.110000) to (110.88000 128.03320 201.33000)
  1 by 2 by 2 MPI processor grid
create_atoms 1 region 3
Created 1016 atoms
  create_atoms CPU = 0.001 seconds
lattice custom 6.711 a1 0.3671583967 0 0 a2 0.1835791983 0.3179684987 0 a3 0 0 1 basis 0.2667 0.2667 0.25 basis 0.6 0.6 0.75
Lattice spacing in x,y,z = 3.6960000 2.1338866 6.7110000
create_atoms 1 region 8
Created 161 atoms
  create_atoms CPU = 0.000 seconds
delete_atoms region 6
Deleted 709 atoms, new total = 468
lattice custom 6.711 a1 0.3671583967 0 0 a2 0.1835791983 0.3179684987 0 a3 0 0 1 basis 0.1 0.1 0.05 basis 0.433 0.433 0.55
Lattice spacing in x,y,z = 3.6960000 2.1338866 6.7110000
create_atoms 1 region 7
Created 406 atoms
  create_atoms CPU = 0.000 seconds
#create_atoms 1 region 10
delete_atoms region 5
Deleted 300 atoms, new total = 574
#delete_atoms region 9
mass 1 12.0107
lattice custom 5.4309 a1 1 0 0 a2 0 1 0 a3 0 0 1 basis 0.15 0.15 0.15 basis 0.65 0.65 0.15 basis 0.65 0.15 0.65 basis 0.15 0.65 0.65
Lattice spacing in x,y,z = 5.4309000 5.4309000 5.4309000
create_atoms 2 region 4
Created 95 atoms
  create_atoms CPU = 0.000 seconds
create_atoms 2 region 9
Created 30 atoms
  create_atoms CPU = 0.000 seconds
create_atoms 2 random 94 5628 5
Created 94 atoms
  create_atoms CPU = 0.000 seconds
lattice custom 5.4309 a1 1 0 0 a2 0 1 0 a3 0 0 1 basis 0.65 0.35 0.35 basis 0.65 0.85 0.85 basis 0.15 0.85 0.35 basis 0.15 0.85 0.0.85
Lattice spacing in x,y,z = 5.4309000 5.4309000 5.4309000
create_atoms 2 region 2
Created 264 atoms
  create_atoms CPU = 0.000 seconds
create_atoms 2 region 12
Created 64 atoms
  create_atoms CPU = 0.000 seconds
create_atoms 2 region 11
Created 0 atoms
  create_atoms CPU = 0.000 seconds
mass 2 28.0855
group 1 type 1
574 atoms in group 1
group 2 type 2
547 atoms in group 2
group 3 type 1
574 atoms in group 3
group 3 type 2
1121 atoms in group 3
pair_style kim Tersoff_LAMMPS_ErhartAlbe_2005SiII_SiC__MO_408791041969_003
pair_coeff * * C Si
neighbor 2.5 bin
neigh_modify every 1 delay 100
dump 1 all atom 100 dump.SiC_$t_dt:${dt}
dump 1 all atom 100 dump.SiC_900_dt:${dt}
dump 1 all atom 100 dump.SiC_900_dt:0.0001
compute 1 1 pe/atom
compute 2 1 ke/atom
compute 3 2 pe/atom
compute 4 2 ke/atom
compute ape_C 1 reduce ave c_1
compute ake_C 1 reduce ave c_2
compute ape_Si 2 reduce ave c_3
compute ake_Si 2 reduce ave c_4
velocity 3 zero linear
velocity 3 zero angular
fix 1 3 nvt temp 0.001 10 0.001 fixedpoint 20.0 35.0 20.0
thermo_style custom step temp press c_ape_C c_ake_C c_ape_Si c_ake_Si
thermo 100
timestep 0.0001
run 1000
WARNING: More than one compute ke/atom (src/compute_ke_atom.cpp:55)
WARNING: More than one compute ke/atom (src/compute_ke_atom.cpp:55)
Neighbor list info ...
  update every 1 steps, delay 100 steps, check yes
  max neighbors/atom: 2000, page size: 100000
  master list distance cutoff = 5.55
  ghost atom cutoff = 5.55
  binsize = 2.775, bins = 27 39 49
  1 neighbor lists, perpetual/occasional/extra = 1 0 0
  (1) pair kim, perpetual
      attributes: full, newton off, ghost, cut 5.55
      pair build: full/bin/ghost
      stencil: full/ghost/bin/3d
      bin: standard
Per MPI rank memory allocation (min/avg/max) = 4.280 | 4.282 | 4.285 Mbytes
Step Temp Press c_ape_C c_ake_C c_ape_Si c_ake_Si 
       0            0    2918.5957  0.081050269            0   0.68181837            0 
     100 1.1114823e-16    2502.6627 -0.091458954 1.0062945e-20   0.20175679 1.8857313e-20 
     200 1.7608202e-17    2220.8861  -0.17326149 1.4865111e-21 -0.069440709 3.1003765e-21 
     300 1.3601689e-17    1998.0688  -0.22478903 1.097158e-21  -0.25901639 2.4485674e-21 
     400 1.7380944e-17    1798.8888   -0.2612805 1.3331935e-21  -0.40426588 3.2011149e-21 
     500 2.7826151e-17    1605.6893  -0.28843064 1.9854423e-21  -0.52043036 5.2811443e-21 
     600 5.0760787e-17    1426.4946  -0.30921212 3.3320024e-21  -0.61574396 9.9380967e-21 
     700 1.0137991e-16    1273.6446  -0.32572666 6.2039406e-21   -0.6960527 2.0321472e-20 
     800 2.1648783e-16    1155.6193  -0.33946382 1.2763259e-20  -0.76558427 4.3903341e-20 
     900 4.8272003e-16    1062.8198  -0.35140307 2.8006898e-20  -0.82723027 9.8369428e-20 
    1000 1.1046747e-15    978.16556  -0.36196914 6.3148978e-20  -0.88253897 2.2610191e-19 
Loop time of 0.605155 on 4 procs for 1000 steps with 1121 atoms

Performance: 14.277 ns/day, 1.681 hours/ns, 1652.468 timesteps/s
99.7% CPU use with 4 MPI tasks x 1 OpenMP threads

MPI task timing breakdown:
Section |  min time  |  avg time  |  max time  |%varavg| %total
---------------------------------------------------------------
Pair    | 0.30715    | 0.45092    | 0.56685    |  16.2 | 74.51
Neigh   | 0          | 0          | 0          |   0.0 |  0.00
Comm    | 0.012288   | 0.12852    | 0.27227    |  30.5 | 21.24
Output  | 0.0089467  | 0.0089786  | 0.0090545  |   0.0 |  1.48
Modify  | 0.010208   | 0.01147    | 0.012727   |   1.1 |  1.90
Other   |            | 0.005264   |            |       |  0.87

Nlocal:        280.250 ave         308 max         259 min
Histogram: 1 1 0 0 0 0 1 0 0 1
Nghost:        201.250 ave         220 max         181 min
Histogram: 1 0 0 0 1 1 0 0 0 1
Neighs:         0.00000 ave           0 max           0 min
Histogram: 4 0 0 0 0 0 0 0 0 0
FullNghs:      5332.00 ave        6101 max        4737 min
Histogram: 1 0 0 1 1 0 0 0 0 1

Total # of neighbors = 21328
Ave neighs/atom = 19.025870
Neighbor list builds = 0
Dangerous builds = 0
reset_timestep 0
unfix 1
velocity 3 zero linear
velocity 3 zero angular
velocity 3 create 300 125210
velocity 3 scale 300
fix 1 3 nvt temp 10 300 0.001 fixedpoint 20.0 35.0 20.0
thermo_style custom step temp press c_ape_C c_ake_C c_ape_Si c_ake_Si
thermo 100
timestep 0.0001
run 2000
WARNING: More than one compute ke/atom (src/compute_ke_atom.cpp:55)
WARNING: More than one compute ke/atom (src/compute_ke_atom.cpp:55)
Per MPI rank memory allocation (min/avg/max) = 4.780 | 4.782 | 4.785 Mbytes
Step Temp Press c_ape_C c_ake_C c_ape_Si c_ake_Si 
       0          300    1021.9886  -0.36196914  0.038760967  -0.88253897   0.03872507 
     100    19.501514    639.70782  -0.40268941  0.001075754   -1.0984871 0.0040325007 
     200    35.942708    236.69511   -0.4538535 0.0022173961   -1.3503826  0.007185904 
     300    50.332925   -61.105256  -0.51962294 0.0036045036   -1.5780593 0.0095389049 
     400    66.172604   -273.62966  -0.57544735 0.0055472526   -1.7737278  0.011692459 
     500    81.820537   -369.53016  -0.63589801 0.0072861565   -1.9220804  0.014009172 
     600    96.167946   -397.10376  -0.68401958 0.0096513886   -2.0351436  0.015324438 
     700    109.85313   -378.24259  -0.72501329  0.012448716   -2.1208587  0.016011012 
     800    126.24841   -327.31893  -0.77292346    0.0185496   -2.1785286  0.013948233 
     900    146.52475   -323.74327  -0.80099161  0.018594783   -2.2231159  0.019267244 
    1000    146.65467   -330.24538  -0.86583624  0.022234219   -2.2637692  0.015482551 
    1100    159.77446   -388.12595  -0.95388048  0.028657673   -2.3041173  0.012214373 
    1200    181.11532   -362.59372   -1.0276178  0.034836172   -2.3417974  0.011379066 
    1300     213.6498   -364.04488   -1.0819989  0.039607183   -2.3653918  0.014983272 
    1400    218.85494   -291.26596    -1.147248  0.038484439    -2.383378  0.017539048 
    1500    212.67148   -326.82398   -1.1992071  0.039086303   -2.4004134  0.015270936 
    1600     254.2427   -284.60626   -1.2424999  0.047496638   -2.4170853  0.017447881 
    1700    267.94772   -333.09747   -1.3047006  0.055394309   -2.4297969  0.012787611 
    1800    282.72313   -259.03032    -1.342801  0.056744875   -2.4414659  0.015280904 
    1900    285.27395   -257.39696   -1.4050786  0.058625127   -2.4533573  0.013982953 
    2000    304.20114    -268.0273   -1.4244031  0.059840171   -2.4632504  0.017717287 
Loop time of 1.22658 on 4 procs for 2000 steps with 1121 atoms

Performance: 14.088 ns/day, 1.704 hours/ns, 1630.549 timesteps/s
99.7% CPU use with 4 MPI tasks x 1 OpenMP threads

MPI task timing breakdown:
Section |  min time  |  avg time  |  max time  |%varavg| %total
---------------------------------------------------------------
Pair    | 0.61565    | 0.91315    | 1.1296     |  22.3 | 74.45
Neigh   | 0.0017856  | 0.0020662  | 0.0023213  |   0.5 |  0.17
Comm    | 0.04395    | 0.26044    | 0.55795    |  41.8 | 21.23
Output  | 0.017789   | 0.017858   | 0.017996   |   0.1 |  1.46
Modify  | 0.020464   | 0.022805   | 0.025152   |   1.5 |  1.86
Other   |            | 0.01026    |            |       |  0.84

Nlocal:        280.250 ave         308 max         259 min
Histogram: 1 1 0 0 0 0 1 0 0 1
Nghost:        199.500 ave         218 max         180 min
Histogram: 1 0 0 0 0 2 0 0 0 1
Neighs:         0.00000 ave           0 max           0 min
Histogram: 4 0 0 0 0 0 0 0 0 0
FullNghs:      5253.50 ave        6028 max        4637 min
Histogram: 1 0 0 1 1 0 0 0 0 1

Total # of neighbors = 21014
Ave neighs/atom = 18.745763
Neighbor list builds = 2
Dangerous builds = 0
reset_timestep 0
unfix 1
velocity 3 zero linear
velocity 3 zero angular
velocity 3 create $t 12025
velocity 3 create 900 12025
velocity 3 scale $t
velocity 3 scale 900
fix 1 3 nvt temp $t $t 0.001 fixedpoint 20.0 35.0 20.0
fix 1 3 nvt temp 900 $t 0.001 fixedpoint 20.0 35.0 20.0
fix 1 3 nvt temp 900 900 0.001 fixedpoint 20.0 35.0 20.0
thermo_style custom step temp press c_ape_C c_ake_C c_ape_Si c_ake_Si
thermo 100
timestep ${dt}
timestep 0.0001
run 200000
WARNING: More than one compute ke/atom (src/compute_ke_atom.cpp:55)
WARNING: More than one compute ke/atom (src/compute_ke_atom.cpp:55)
Per MPI rank memory allocation (min/avg/max) = 4.780 | 4.782 | 4.785 Mbytes
Step Temp Press c_ape_C c_ake_C c_ape_Si c_ake_Si 
       0          900   -180.99492   -1.4244031   0.11958785   -2.4632504   0.11270713 
     100    874.87454   -215.56685   -1.4749418   0.14092679   -2.4526523  0.083665081 
     200    967.53367   -318.78089   -1.5993817   0.18837954   -2.4597511  0.058393619 
     300    965.38818   -223.73937   -1.7914449   0.20281232   -2.4868166  0.042680601 
     400    913.76945     -202.972   -1.9603048   0.19791988   -2.5059999  0.034152907 
     500     917.9602   -328.20104   -2.0944099   0.20278429   -2.5220926  0.030157527 
     600      884.462   -286.77908   -2.2253325   0.19915519   -2.5354443  0.025099986 
     700    967.16651   -282.48795   -2.2938141   0.21217978   -2.5546941  0.033321422 
     800    908.03239   -69.805568   -2.3985421   0.19789411   -2.5726337  0.032661543 
     900     892.6784   -230.79879    -2.467623   0.19597382   -2.5790133  0.030612969 
    1000    912.54128   -176.49152   -2.5304456   0.19483098   -2.5980111  0.037069213 
    1100    903.73575   -83.868574   -2.5933013    0.1858298   -2.6162584  0.044184183 
    1200    925.72985   -255.59138   -2.6411227   0.18787627   -2.6334836  0.047857752 
    1300    890.05277   -48.256402   -2.6702323   0.17796771   -2.6452894  0.048812958 
    1400    880.59284   -201.77977   -2.7063451   0.16912639   -2.6755448   0.05558698 
    1500    932.91398   -157.50479   -2.7521562   0.17386443    -2.697558  0.064462601 
    1600    874.79628    51.027694    -2.785938   0.16399067   -2.7063533  0.059442059 
    1700    858.28887   -165.87129   -2.8031484   0.14877732   -2.7347594  0.071037412 
    1800    895.31321   -164.27681   -2.8234497   0.15275852    -2.752112  0.076658723 
    1900    913.37453   -104.31891    -2.831643   0.15450742   -2.7567875  0.079603685 
    2000    922.19836   -66.533425   -2.8578328   0.14778095   -2.7907394  0.088997526 
    2100    893.35089   -90.933729   -2.8868202    0.1380699   -2.8133663  0.091553022 
    2200    911.47089   -118.57841   -2.9044325   0.13370248   -2.8393586   0.10093174 
    2300    892.94623    2.9272754   -2.9417068   0.14055848   -2.8585528  0.088834504 
    2400    888.79609   -75.703288   -2.9380307    0.1344522   -2.8689016  0.094143796 
    2500    875.93396    -41.05166    -2.939757   0.12638301   -2.8855929  0.099207141 
    2600    922.26179   -114.73335   -2.9470036   0.12078476   -2.9119423   0.11734304 
    2700     900.9043   -205.93318    -2.970848   0.12033283   -2.9351018   0.11216472 
    2800    942.43867   -163.56244   -2.9989145   0.13009382   -2.9569469   0.11291458 
    2900    917.18339   -154.91246   -3.0034607   0.11509616   -2.9942182   0.12196836 
    3000    913.15617   -0.6786414    -2.998606   0.11545807   -2.9949591   0.12052273 
    3100    877.95421   -82.096764   -3.0138129    0.1136824   -3.0090847   0.11306934 
    3200    913.33804    14.835198   -3.0150292   0.10905098   -3.0332262    0.1272942 
    3300    860.97044   -101.01312    -3.027078  0.093845217   -3.0688323   0.12939069 
    3400    867.04336   -27.292149   -3.0427831   0.10357265   -3.0808639    0.1207904 
    3500    906.24565   -21.356214   -3.0583545   0.11135719    -3.097305   0.12299706 
    3600    887.28496   -82.324051   -3.0722526   0.11285165   -3.1140678   0.11641061 
    3700    887.68543    46.857495   -3.0832691   0.10704307   -3.1350598   0.12261189 
    3800    866.78571   -4.5509126    -3.075462  0.095921589   -3.1608417   0.12875092 
    3900    921.20971    65.683667   -3.0964806   0.11425488   -3.1658389   0.12391679 
    4000    904.11869    23.726112   -3.1121761   0.11049092   -3.1761982   0.12334316 
    4100     898.6914   -85.920474   -3.1208847   0.10602616   -3.1972037   0.12659189 
    4200    924.34244    1.0417046   -3.1242458    0.1007282   -3.2189523   0.13894027 
    4300    880.75201   -16.749303   -3.1394017  0.099655414   -3.2405365   0.12852918 
    4400     890.9845    47.439331   -3.1369074   0.10066172   -3.2409279   0.13018138 
    4500    868.06219    14.509669   -3.1406373  0.091983088   -3.2576295   0.13322167 
    4600    888.42905    19.303834   -3.1481777  0.095729375   -3.2645422   0.13468085 
    4700    914.14328    65.538626   -3.1551312   0.10241543   -3.2711798   0.13447041 
    4800    898.61015    70.312522   -3.1696196   0.10325179   -3.2947989   0.12948169 
    4900    908.37877    46.661587   -3.1626269  0.096384915   -3.3017173   0.13927293 
    5000    956.27994    4.4084794   -3.1664371  0.098393796   -3.3118144   0.14984262 
    5100    860.75746   -40.498096   -3.1718267  0.090750438   -3.3158038   0.13258186 
    5200    876.08273    90.409275   -3.1835185  0.096023498   -3.3206254   0.13110458 
    5300    921.92498    45.378306   -3.1873629   0.10560492   -3.3415168   0.13318301 
    5400    930.77741   -26.293716    -3.181864   0.10489029   -3.3395116   0.13627585 
    5500    870.99246   -114.82094   -3.1886431  0.094763825   -3.3538281   0.13107921 
    5600     897.3108   -98.943965   -3.1956693  0.096501238   -3.3731729   0.13622157 
    5700    859.69885    17.144047   -3.1904738  0.094244018   -3.3680375   0.12863566 
    5800    943.98136    2.5345331   -3.2150068   0.10730305   -3.3895138   0.13723861 
    5900    924.29914    -2.502523   -3.2269979    0.1050014   -3.4127094   0.13444469 
    6000    896.96956   -34.933809   -3.2324354    0.1076342   -3.4229894   0.12444877 
    6100    890.99297    -76.16737   -3.2279486   0.10412993   -3.4186057   0.12654422 
    6200    899.18577    33.098151   -3.2448662   0.10588903   -3.4421737   0.12686662 
    6300     937.5599    51.612568   -3.2458228   0.10549098   -3.4519485   0.13744059 
    6400    896.57069    23.301829   -3.2664503   0.11043486    -3.457773   0.12140429 
    6500    901.32671   -10.727976   -3.2705198   0.11423757   -3.4520521   0.11867263 
    6600    899.94227    27.792185   -3.2674986   0.11005192    -3.463728   0.12269848 
    6700    903.30784    24.522753   -3.2783241   0.10679129   -3.4865965    0.1270108 
    6800    901.53482   -54.863348   -3.2825248   0.10708675   -3.4917307    0.1262315 
    6900    929.06687    6.0427262   -3.3035267   0.12184666   -3.4999213   0.11802979 
    7000    848.88587   -41.960078   -3.3092961   0.10746312   -3.5102782   0.11190225 
    7100    869.90172   -7.6125841   -3.3203959   0.11206207   -3.5213341   0.11263845 
    7200    916.26571   -73.542623   -3.3221937   0.11873721   -3.5242927   0.11790471 
    7300     851.2274    38.684426   -3.3245654    0.1082707   -3.5329555   0.11167453 
    7400     909.7326   -37.471312   -3.3237926    0.1154342   -3.5444722   0.11964167 
    7500    938.97796   -20.858136   -3.3211558   0.11548798   -3.5456952   0.12732545 
    7600    925.49936   -68.815939    -3.340662   0.12374278   -3.5568284   0.11509589 
    7700    893.45022   -25.862036   -3.3485597   0.11745425    -3.564579   0.11321256 
    7800    905.41537    -48.89898   -3.3521421   0.11729322   -3.5795521   0.11654828 
    7900     885.4253   -93.711163   -3.3570571     0.113709   -3.5857181   0.11501875 
    8000    895.98378    37.091295   -3.3717595   0.11952034   -3.5917155   0.11171502 
    8100    894.12448    58.250704   -3.3790772   0.11689768   -3.6085846   0.11397505 
    8200    898.00645    181.71158   -3.3806674     0.117497   -3.6073994   0.11437357 
    8300    938.22033    32.095276   -3.3930925   0.12409724   -3.6158568   0.11809072 
    8400      898.729    4.8721213    -3.387757   0.10897113   -3.6252444   0.12351151 
    8500    887.92801     109.5526   -3.3792193   0.10714072   -3.6150931   0.12257362 
    8600    877.68831    2.7125325   -3.3835397   0.11049039   -3.6210305   0.11634854 
    8700    866.43011    32.930809   -3.3860354   0.10896587   -3.6207076   0.11496866 
    8800    900.34187   -42.052866   -3.3866247   0.10933202   -3.6230518   0.12355967 
    8900    940.73538   -23.628676   -3.3838867   0.11322187    -3.631883   0.13016854 
    9000    896.85705    -77.37141   -3.4035346   0.10764558   -3.6424188   0.12440704 
    9100    902.33664   -18.607727    -3.407905   0.11162808   -3.6466312   0.12167822 
    9200    878.40705    36.630375    -3.404773   0.11171655   -3.6379427   0.11525208 
    9300    888.74274   -54.373453   -3.4137286   0.10995392   -3.6520707    0.1198372 
    9400    915.13711   -49.706625   -3.4224232   0.11691132   -3.6595925   0.11952203 
    9500    943.73862   -98.570624   -3.4431232   0.12273088   -3.6796475   0.12098501 
    9600    895.15424   -71.136127   -3.4483852   0.11068239   -3.6947471   0.12076966 
    9700     862.5765    49.190118   -3.4581199   0.11432788   -3.6944187   0.10832207 
    9800    896.48727   -10.346379   -3.4609751   0.11908136   -3.6967274   0.11230892 
    9900    908.02625   -43.373616   -3.4932186   0.12742671   -3.7197623   0.10660561 
   10000    921.03289    49.236923    -3.489882   0.12938598   -3.7221356   0.10799201 
   10100    930.04119   -15.994232   -3.4919476   0.12534852   -3.7253176   0.11461294 
   10200    871.95715    39.473128   -3.5215289   0.12769547   -3.7354873  0.096777378 
   10300    863.98494   -72.987478   -3.5040083   0.11196997   -3.7501727   0.11116913 
   10400    891.51157    41.109559   -3.5185967     0.121898   -3.7463257   0.10803637 
   10500     930.0952    92.440466   -3.5194149   0.12752955   -3.7445781   0.11233855 
   10600     881.7361   -8.5539742   -3.5251872   0.11668934    -3.756198   0.11091491 
   10700    906.70817    9.6573715   -3.5199047   0.11795687   -3.7545874   0.11619403 
   10800    900.48125   -48.528441   -3.5287723   0.12507882   -3.7592681    0.1070725 
   10900    850.55909   -30.812035   -3.5322226   0.11413426   -3.7637909   0.10534467 
   11000    901.45033     52.61064   -3.5398435   0.12059113   -3.7702181   0.11203818 
   11100    865.65927   -55.633758   -3.5423454   0.11915346   -3.7714935   0.10407419 
   11200    857.09208   -76.538838   -3.5375898   0.11501341   -3.7745068   0.10615117 
   11300    920.31029   -19.985687   -3.5363463   0.12207986    -3.778106   0.11546752 
   11400    897.71112   -20.874047   -3.5567874   0.12221091   -3.7792519   0.10934881 
   11500     862.4035    26.839187   -3.5633751   0.12024192    -3.782738   0.10207033 
   11600    897.60116   -48.658993   -3.5494504   0.11581218   -3.7903249   0.11603428 
   11700    900.82151    67.943632   -3.5526706   0.12333691   -3.7852844   0.10899044 
   11800     895.2987    50.129827   -3.5523462   0.11643272   -3.7817805   0.11477373 
   11900    914.53651    51.967474    -3.557232   0.11830421   -3.7919667   0.11790143 
   12000    928.45162    21.669504   -3.5680655   0.12074563    -3.797885   0.11902233 
   12100    906.96877   -7.1698011   -3.5736749   0.11954456   -3.7941405   0.11459695 
   12200    908.34416   -146.37391    -3.563772   0.11660242   -3.8044062   0.11804833 
   12300    922.99785   -131.43057    -3.572691   0.11862413   -3.8044851   0.11980513 
   12400    894.87079   -83.531801   -3.5674083   0.11296824   -3.8065991   0.11829597 
   12500    904.39601    19.952649   -3.5710074   0.11373243   -3.8167192   0.12001504 
   12600     880.9804    33.630176   -3.5874063   0.11642974    -3.827542   0.11098732 
   12700    926.01433   -86.460173   -3.5827535   0.11381867   -3.8274908   0.12564614 
   12800    888.71546   -31.293861   -3.5948471   0.11269613   -3.8321971   0.11695241 
   12900    879.57062    20.164845   -3.5869297   0.10490776   -3.8340912   0.12270491 
   13000    949.18103   -31.388512   -3.5937666    0.1200651   -3.8358325   0.12522278 
   13100     908.3475    11.179491   -3.5931461   0.11345793   -3.8332028   0.12134891 
   13200    919.47015   -98.835684   -3.5925728   0.11017253   -3.8445697   0.12774025 
   13300    886.39894    -44.79436   -3.6005383   0.10826982   -3.8468302    0.1209841 
   13400    929.16101    2.7703428   -3.6195425   0.11881161    -3.855555   0.12123957 
   13500    914.52943   -28.793826   -3.6269181   0.11488938    -3.874213   0.12148294 
   13600    885.74239   -43.646915   -3.6105974   0.11061148   -3.8628387    0.1183531 
   13700    895.41514    -45.29614   -3.6167189   0.11216698   -3.8631432   0.11928085 
   13800    883.19467    14.689342   -3.6367003    0.1172673   -3.8714061   0.11069445 
   13900    917.83795  -0.58987841   -3.6441457   0.12192264   -3.8830103   0.11497816 
   14000    890.78776   -81.422927   -3.6467256    0.1212853   -3.8815096   0.10848774 
   14100    894.08942   -6.6814116   -3.6595267   0.12040465   -3.8786738   0.11028569 
   14200    945.86816     55.47322    -3.681811   0.13903734    -3.882992   0.10443727 
   14300    872.82825    20.654397   -3.6819916   0.12189063   -3.8925105   0.10309929 
   14400    913.39792    13.041908   -3.6874346    0.1278825   -3.8976036   0.10754901 
   14500    881.90407   -40.571389   -3.6872657   0.12473014   -3.8868969   0.10252168 
   14600    911.70416   -72.528003   -3.6800255     0.118768   -3.8941009   0.11666512 
   14700    962.30313   -49.344185   -3.6856877   0.12345296   -3.9066097   0.12514065 
   14800    876.10534    1.0324618   -3.6928374   0.12261677   -3.9080044   0.10320464 
   14900    882.09743    -29.88338   -3.7048806   0.12237162   -3.9125747   0.10504779 
   15000    895.10049   -45.148455    -3.709353   0.12629511   -3.9140375   0.10437207 
   15100    930.12386   -45.169965    -3.706934   0.12953616   -3.9171469   0.11024048 
   15200    881.56219   -54.220311   -3.7258016   0.13407835   -3.9168435  0.092621552 
   15300    885.64562  -0.54811162   -3.7184707   0.12734431   -3.9150816   0.10076871 
   15400    891.25707   -20.475905   -3.7175394   0.11898258   -3.9179097   0.11102834 
   15500    924.02046   -20.722374   -3.7295205   0.12707839   -3.9196688   0.11120421 
   15600    932.14356    69.474359   -3.7257933   0.13321122   -3.9233766   0.10691856 
   15700    886.10512    97.305183   -3.7301626   0.12132504   -3.9256214   0.10720671 
   15800    919.68211    119.66503   -3.7219393   0.11746441   -3.9303952   0.12014454 
   15900     879.5758   -17.783325   -3.7357977   0.12465027   -3.9314168   0.10198927 
   16000    881.12931    22.843093   -3.7507253   0.12584837   -3.9345903   0.10114319 
   16100    869.01689    33.406485   -3.7371348   0.11788955   -3.9383308   0.10628914 
   16200     864.6421    86.970093   -3.7508064   0.12307771   -3.9399419  0.099687039 
   16300    884.24061   -35.113688   -3.7671333   0.13212844   -3.9445911  0.095376583 
   16400    924.08653   -91.630904   -3.7667174   0.13517947   -3.9429662   0.10272075 
   16500    895.12826   -14.369067   -3.7706171   0.12680107   -3.9411948   0.10384849 
   16600     895.6653    19.897655   -3.7835938   0.13072669   -3.9444319  0.099871239 
   16700    898.23432    32.557211   -3.8025057   0.13388158   -3.9571582  0.097240547 
   16800    919.22524    29.059734   -3.8074994   0.12834004   -3.9630968   0.10861117 
   16900    854.03669   -89.313558   -3.8077262    0.1224695   -3.9672393  0.097518398 
   17000    857.72782   -33.164236   -3.8083543   0.11800847   -3.9625279   0.10317654 
   17100    912.33925   -29.457739   -3.8329839   0.13555271   -3.9696114  0.099220004 
   17200    875.55774   -35.077664   -3.8260537   0.12845568   -3.9715558  0.096932585 
   17300    838.79201   -22.214665   -3.8224073   0.11972573   -3.9681397  0.096362878 
   17400    891.34688   -127.06374   -3.8309183   0.13229478   -3.9696758  0.097082811 
   17500    924.53803   -72.663179   -3.8384797   0.13983468   -3.9711758  0.097955256 
   17600    912.13641   -89.657409   -3.8291328   0.13177964   -3.9707358   0.10312563 
   17700    894.34607   -90.697038   -3.8215618   0.12361431   -3.9701313   0.10698553 
   17800     899.9092   -84.114512   -3.8409283    0.1337438   -3.9737282  0.097828412 
   17900     922.8965   -1.9923141   -3.8511054   0.13861117   -3.9775936  0.098804703 
   18000    885.31577   -61.536365   -3.8728037   0.13739476   -3.9875628  0.090134872 
   18100    913.03588   -50.354611   -3.8608349   0.13482836   -3.9887564   0.10016448 
   18200    917.89276    79.446294   -3.8656819   0.13921668   -3.9808761  0.096844993 
   18300    907.86936     52.22728   -3.8763819   0.13582744   -3.9938677  0.097748689 
   18400    899.89042   -39.313641   -3.8719751   0.13138794   -4.0003727   0.10029558 
   18500     920.3203  -0.68269874   -3.8825895   0.14265393   -3.9896148   0.09388056 
   18600    917.01867    24.025219   -3.8789738   0.13756302   -3.9976015  0.098348938 
   18700    891.82395   -23.159667   -3.8810107   0.13082336    -4.000213  0.098753126 
   18800    897.43135   -3.2266233   -3.8772442   0.13019108   -3.9902238   0.10090069 
   18900    924.09475   -42.387116   -3.8830912   0.12611387   -4.0067443   0.11223601 
   19000    897.97344    84.767763   -3.8888102   0.12526133   -4.0044501   0.10621725 
   19100    884.75684    74.610551   -3.9002253   0.12614729   -4.0041677   0.10178959 
   19200    886.89171    40.155853   -3.9048506   0.12923379    -4.011452  0.099115765 
   19300    897.30591    67.086082   -3.9003981   0.12617824   -4.0144074   0.10507841 
   19400     957.4484    35.649462   -3.9105844   0.13711252   -4.0164454   0.10952198 
   19500     902.6742    24.603794   -3.9062238   0.13283755   -4.0145506  0.099511193 
   19600    913.91601    13.172151   -3.9046768   0.13805923   -4.0159823  0.097007072 
   19700    901.58711    12.864087   -3.9105845   0.12969863   -4.0237852   0.10251733 
   19800    910.56635   -55.347987   -3.9038649   0.12611375    -4.023513   0.10865564 
   19900    938.41992   -71.877042   -3.9115569   0.12678649   -4.0234851   0.11532154 
   20000    886.64934   -3.2448471   -3.9161887   0.12100359   -4.0231244   0.10768807 
   20100    874.38524     36.10078   -3.9178021   0.12046711   -4.0228565   0.10500516 
   20200    894.90013   -30.835097   -3.9210804   0.12934025   -4.0233451    0.1011236 
   20300      856.514   -44.226299    -3.928013   0.12530525    -4.025777  0.095198331 
   20400    892.58301   -97.679545   -3.9247363   0.13221829   -4.0225013   0.09749024 
   20500    889.06406   -37.005256   -3.9195422   0.12650583   -4.0144012   0.10255332 
   20600     881.6122    36.287057   -3.9363653   0.12860732   -4.0210956   0.09837586 
   20700    861.53438    9.5574125    -3.921812   0.11940985   -4.0261344   0.10271344 
   20800    906.56554    36.893947   -3.9469264   0.13839763    -4.022543  0.094706561 
   20900    888.13797   -1.1636906   -3.9362176   0.12522943   -4.0251525   0.10364763 
   21000    918.34018    3.1264999   -3.9277277   0.12154213   -4.0272213   0.11551038 
   21100     918.1463   -52.778971   -3.9286213   0.12977892   -4.0202789    0.1068157 
   21200    869.16222    -26.95972   -3.9252595   0.12110059   -4.0195238   0.10295806 
   21300    891.90436    4.0217427   -3.9383608    0.1264141   -4.0227502   0.10340131 
   21400    898.97878   -8.9138596   -3.9354797   0.13000812   -4.0219788   0.10150223 
   21500    873.08905    1.8623139    -3.931994   0.12808649   -4.0176163  0.096666627 
   21600    944.41488     13.24504   -3.9400615   0.13723205   -4.0223449   0.10594704 
   21700    939.88166   -7.8096639   -3.9446488   0.13396824   -4.0192274   0.10817217 
   21800    915.70125   -39.609758   -3.9488288   0.12858862   -4.0220598   0.10741764 
   21900    921.87937    28.067574   -3.9378379   0.12445316    -4.019226   0.11339236 
   22000    878.03446    58.640173   -3.9388251   0.11897974   -4.0217598   0.10753176 
   22100    921.37486    3.4150826   -3.9516365   0.12742305     -4.02549   0.11014235 
   22200    902.76126   -21.142385   -3.9558872   0.12710919   -4.0292319   0.10554534 
   22300    909.96039    19.416543   -3.9548941   0.12847024   -4.0298855   0.10602246 
   22400    868.31004    6.7673088   -3.9473736   0.11597221   -4.0337138   0.10811404 
   22500    869.16928    22.907863    -3.960204   0.12155583   -4.0339935   0.10248222 
   22600    925.91027   -21.639021    -3.956815   0.12463892    -4.029031   0.11426427 
   22700    895.92418    -39.80195   -3.9577213   0.12573213   -4.0241627   0.10518084 
   22800    881.93416     33.96793   -3.9527403   0.12377566   -4.0214119   0.10353123 
   22900    930.12443    86.400902      -3.9568   0.12599305   -4.0266916   0.11395863 
   23000     884.0539    30.834923   -3.9726139   0.12347071   -4.0230373   0.10441225 
   23100    887.22649    51.082697   -3.9763024   0.12958096    -4.025818  0.098840067 
   23200    894.19087    26.058396   -3.9752555   0.12759066   -4.0298826   0.10277183 
   23300    910.45191   -1.3945288   -3.9753757   0.12539469   -4.0393323   0.10937992 
   23400    906.22546    17.998442   -3.9740561   0.12632613   -4.0436712    0.1072839 
   23500    870.69882     23.63934   -3.9874066   0.12444232   -4.0462061  0.099858065 
   23600    856.58734     35.87818   -3.9823366   0.11557372   -4.0485147   0.10542961 
   23700    892.88203   -31.285067   -3.9988193   0.12409408   -4.0504993    0.1060946 
   23800    932.94235   -43.923099     -4.00152   0.13001596   -4.0492098   0.11048295 
   23900    934.92218   -48.792499   -4.0093745   0.13172538   -4.0501946   0.10921315 
   24000    987.83138    32.139051   -4.0097401   0.13815286   -4.0522534   0.11647158 
   24100    924.07247    53.923213   -4.0029473   0.12210991   -4.0569839    0.1164317 
   24200    911.71357    31.964443   -4.0097464   0.12442341   -4.0541603   0.11073305 
   24300    897.50429    30.255147   -4.0116524   0.12658207   -4.0562927   0.10470715 
   24400     894.5065   -9.9000055    -4.012863   0.12515232   -4.0543794   0.10541406 
   24500     879.5489   -3.9056379   -4.0169964   0.12430528    -4.055906   0.10234417 
   24600    883.21137   -53.308839   -4.0131372   0.12390074   -4.0588621   0.10373801 
   24700    870.82934   -19.917556   -3.9982728   0.11842611   -4.0574395   0.10620578 
   24800    916.40332   -23.930935   -4.0111093   0.13072933    -4.057692   0.10535708 
   24900    890.86064   -49.548788    -4.012056   0.12215552   -4.0578768   0.10759386 
   25000      906.576   -18.918412   -4.0115078   0.12751424   -4.0486487   0.10612993 
   25100    917.79683     -101.608   -4.0148689   0.13089197   -4.0444094   0.10555522 
   25200    917.57704    26.431965    -4.013289   0.12607923   -4.0471863   0.11054735 
   25300    868.97338    58.721881   -4.0158079    0.1154971   -4.0574265   0.10878817 
   25400    876.40962    50.472222   -4.0234179   0.11650133   -4.0568708   0.10970247 
   25500     906.8867    37.855201   -4.0377264   0.12993015   -4.0532207     0.103677 
   25600     903.7995    16.775119   -4.0284635   0.13043005   -4.0540267   0.10233535 
   25700    912.94282    10.955493    -4.030267   0.12641863   -4.0609091   0.10896469 
   25800     863.4055   -56.296605   -4.0344671   0.12193514   -4.0580257   0.10055872 
   25900    895.81094    -91.02778     -4.03959   0.12789033   -4.0585912   0.10288615 
   26000    913.66802   -61.234392   -4.0266066   0.12774668   -4.0566605   0.10776302 
   26100    885.95538   -34.956058   -4.0452311   0.12906632   -4.0646236   0.09904369 
   26200    898.28223   -32.706834   -4.0482088   0.12984244   -4.0634039   0.10149174 
   26300    898.24773   -25.118271    -4.060384   0.13330995    -4.053935  0.097843943 
   26400    885.92143    10.289384   -4.0622533   0.13500572    -4.049923  0.092802139 
   26500     902.2484    27.209688   -4.0588695   0.12806897   -4.0548537   0.10440245 
   26600    909.31206   -13.329273   -4.0609928   0.12892831   -4.0583792   0.10537019 
   26700    902.23869    1.5000662     -4.05719   0.12937436   -4.0528413   0.10303006 
   26800    925.02129    30.806842   -4.0620661   0.13357765   -4.0552243   0.10464903 
   26900    871.54013   -52.178483    -4.056951   0.11967138   -4.0650642   0.10508716 
   27000    902.05857    19.465425   -4.0658487   0.13263324   -4.0586297  0.099562653 
   27100    911.29974  -0.83087959   -4.0641797   0.13119917   -4.0580755   0.10351331 
   27200    897.52061    54.864505   -4.0651264   0.13012068   -4.0563731   0.10099819 
   27300    916.17469     79.70643    -4.078228   0.13452696   -4.0588887   0.10131149 
   27400    883.11292    11.516989   -4.0842491   0.12754304   -4.0695162  0.099889866 
   27500     869.1057    51.565154   -4.0740416   0.12484066   -4.0680845  0.099018425 
   27600    923.32683     92.32157   -4.0952831   0.14105624   -4.0657925  0.096352835 
   27700    903.44432   -10.705039   -4.1005328    0.1374242   -4.0719789  0.094901969 
   27800    925.98046     36.21438    -4.091364   0.13756487   -4.0744224   0.10071886 
   27900    924.31392   -17.953232   -4.0931276   0.13731436   -4.0730324   0.10054066 
   28000    885.73197   -52.682159   -4.0915265   0.12721473   -4.0785263   0.10092754 
   28100    853.56513   -12.248778     -4.09596   0.12125501   -4.0805705  0.098668024 
   28200    879.35205   -57.646753   -4.1023043   0.12549985   -4.0810339   0.10103854 
   28300    923.94364    11.069814   -4.1065622   0.13351372   -4.0776172    0.1044309 
   28400    919.17938   -33.981954   -4.1134538   0.13757915   -4.0792745  0.098903876 
   28500    911.10436   -48.368093   -4.1068702   0.12896997   -4.0787961   0.10580084 
   28600    876.28289   -45.596773   -4.1237434    0.1289761    -4.077997  0.096578407 
   28700    899.90694   -122.75343   -4.1380388   0.13500483   -4.0812679  0.096504534 
   28800    896.25637   -65.487248   -4.1402724   0.13403701   -4.0793231  0.096553955 
   28900    918.50399   -101.52868   -4.1366762    0.1278084   -4.0854564   0.10897816 
   29000    914.59091    3.1422648   -4.1362014   0.13044841   -4.0801985   0.10517218 
   29100    879.13947   -75.185555   -4.1453732   0.12689235   -4.0832711  0.099521043 
   29200    916.43287   -45.657292   -4.1502752   0.13399303   -4.0883597    0.1019401 
   29300     880.0776    80.309456   -4.1624548   0.13221729   -4.0936734  0.094181552 
   29400    902.02554    105.12424    -4.149562   0.13066858   -4.0919017   0.10161554 
   29500     906.4949     140.0783   -4.1683595   0.13921337   -4.0993746  0.093831866 
   29600     906.1622    48.481931   -4.1779435   0.13587616   -4.1053813  0.097245741 
   29700    906.35734    135.40039   -4.1636696   0.13228133   -4.1044158   0.10106966 
   29800    932.87709    97.849309   -4.1661043   0.14032079   -4.0966059  0.099652195 
   29900    878.17703   -29.487821   -4.1628146   0.12529373   -4.0959556   0.10094385 
   30000    880.30882    13.957255   -4.1773345   0.13444296   -4.0930796  0.091907215 
   30100    949.64202   -41.439217   -4.1817176   0.14568229   -4.0944961  0.098463136 
   30200    907.65438   -150.58206   -4.1608726   0.12648611   -4.0944126   0.10749421 
   30300    882.11215   -10.747717   -4.1732758   0.13107742   -4.0889473  0.095916162 
   30400     896.2825   -129.34916   -4.1766851   0.13228568    -4.095992  0.098398646 
   30500    939.32291   -32.518974   -4.1805084   0.13552018   -4.0991651   0.10639575 
   30600     885.1444   -37.362277   -4.1806587   0.13013555   -4.0952184  0.097707047 
   30700     861.1752   -66.497096   -4.1793743   0.12414668   -4.0959635  0.097647733 
   30800    888.64972    18.368453   -4.1923374   0.13071333   -4.0927877  0.098028482 
   30900    899.74783     39.60351   -4.1994883   0.13449114   -4.0936054  0.097001468 
   31000    894.01716    97.562428   -4.2178767   0.13743232   -4.0984695   0.09239841 
   31100    898.75303   -5.1565648   -4.2231841   0.13923953   -4.1003354  0.091755411 
   31200    905.36201   -25.432103   -4.2285671   0.14147003   -4.1014333  0.091163972 
   31300    966.88148    17.826848   -4.2304781   0.15113836   -4.1028054  0.097300417 
   31400    940.90905   -24.383535   -4.2292406   0.14622963   -4.1041381  0.095577477 
   31500     893.3931   -25.605766   -4.2272806   0.13541321   -4.1062069  0.094352023 
   31600    887.41676    19.709159   -4.2364036   0.13670036   -4.1038715  0.091419609 
   31700    896.26535    8.4024675   -4.2381151   0.13972246   -4.1044693  0.090590241 
   31800    903.11611    34.085296   -4.2338806   0.13700045    -4.097871  0.095259765 
   31900    862.39248   -37.326576   -4.2319571   0.12618528   -4.1036806  0.095830681 
   32000    915.33926    -3.458521   -4.2241755   0.13257953   -4.1014033   0.10313393 
   32100    866.81695   -3.0699845   -4.2270711   0.12504391   -4.1068441  0.098199393 
   32200     900.6594   -8.9742956   -4.2289066   0.13162369   -4.1108788   0.10025172 
   32300    917.21293    5.7175604   -4.2328463   0.13528028   -4.1052852   0.10079576 
   32400    896.92512   -20.231077   -4.2380413   0.13681802   -4.1068939  0.093812668 
   32500    871.46932   -15.682444   -4.2465307   0.13377782   -4.1127709  0.090265684 
   32600    890.93171   -41.744316   -4.2497183   0.13308652   -4.1148223  0.096142114 
   32700    873.20162   -27.219731   -4.2295691    0.1227255   -4.1082316   0.10232203 
   32800    907.29382    35.837898   -4.2397693   0.13542382   -4.1018227  0.098019913 
   32900    908.52439    11.823322   -4.2325394    0.1305397   -4.1094497    0.1034708 
   33000    909.27482   -5.7103646   -4.2424963   0.12720874   -4.1133068   0.10716479 
   33100    901.37677   -24.643162   -4.2375936   0.12607646   -4.1107354   0.10626262 
   33200    907.05866   -46.811169   -4.2344131   0.13330518   -4.1083803   0.10018089 
   33300    890.26879   -24.374747   -4.2366229   0.12902768    -4.099521   0.10022584 
   33400    948.19403   -111.93673   -4.2587404   0.14458275   -4.1057243   0.09923372 
   33500    904.04074    26.391577   -4.2573929   0.12990644     -4.10495   0.10294865 
   33600     914.7223   -73.029943   -4.2568336   0.13126257   -4.1081088   0.10435261 
   33700    875.40474   -4.7257188   -4.2569258   0.13116949   -4.1013971  0.094044331 
   33800    903.93997   -18.966739   -4.2590874   0.13227748    -4.106942   0.10043391 
   33900     916.9407    32.267682   -4.2558584   0.12652177   -4.1125606   0.10991455 
   34000    901.72529    86.152027    -4.253841    0.1262607   -4.1075436   0.10616153 
   34100    880.22969   -41.941408   -4.2562249    0.1209177   -4.1053867   0.10607914 
   34200    893.07996    45.167336   -4.2763638   0.13089097   -4.1026998  0.099014596 
   34300    880.99972   -22.429348   -4.2619624   0.12626765   -4.1046933   0.10066892 
   34400    918.14134    29.640086   -4.2695782    0.1346257   -4.1024909   0.10172837 
   34500    904.16742    7.4182926   -4.2724288   0.13180956   -4.1039291   0.10098512 
   34600    895.18333    -13.89202   -4.2689497   0.12988096   -4.1074767   0.10063115 
   34700    894.05792    29.855999   -4.2701938    0.1293833     -4.11084   0.10085552 
   34800    916.48492    45.177187   -4.2683853   0.13320517   -4.1039772   0.10278062 
   34900    946.80755     33.35633    -4.270301   0.13353372   -4.1065215   0.11046117 
   35000    922.51429   -20.309636   -4.2799911   0.12934008   -4.1189799   0.10843226 
   35100    882.23006    25.698428   -4.2807056   0.12641242   -4.1227416   0.10084263 
   35200    877.80446    52.346046   -4.2840644   0.12360958   -4.1243672   0.10261252 
   35300    934.60207    1.3084219    -4.276521   0.12899713   -4.1206218   0.11199134 
   35400    870.05294   -42.533582   -4.2753019   0.12510105    -4.120855  0.098995884 
   35500    881.10705    15.929908   -4.2722378   0.12144473   -4.1200745    0.1057583 
   35600    934.61998   -16.348401   -4.2753503   0.12878468   -4.1221729   0.11221902 
   35700    924.25186    20.382465   -4.2676085    0.1227848   -4.1161974   0.11577098 
   35800    897.06624   -39.590785    -4.271446   0.12305961   -4.1177872   0.10828755 
   35900    895.75891    38.351965   -4.2664014   0.12375882   -4.1187404   0.10720782 
   36000     879.4254      -45.854   -4.2856537   0.12895066   -4.1200647  0.097436809 
   36100     905.0982   -18.970084   -4.2880177   0.13063063   -4.1187397   0.10246859 
   36200    899.09807    88.618364   -4.2841229   0.12765518    -4.116807   0.10400289 
   36300    917.61274    61.434992   -4.2811145   0.12826394    -4.126047   0.10826425 
   36400    875.74294   -43.477596   -4.2869072   0.12293475   -4.1395949   0.10277505 
   36500    904.02475   -64.450789   -4.2908315   0.12518027   -4.1382153   0.10790387 
   36600    877.52019   -32.170031    -4.289584   0.12079584   -4.1340484   0.10548991 
   36700    921.30793   -1.4371167   -4.2969632   0.13405768   -4.1315926   0.10316251 
   36800    913.17662   -49.194645   -4.2929092   0.12656502   -4.1266293   0.10887295 
   36900    894.62307   -51.371533   -4.3011003   0.12493538   -4.1271408   0.10567257 
   37000    921.61728   -9.2067945   -4.3029144   0.12570257   -4.1312838   0.11201191 
   37100    918.96781   -56.244058   -4.3125032   0.13107791   -4.1390454   0.10567002 
   37200    877.24565    35.127454    -4.315406    0.1293318   -4.1315698  0.096459958 
   37300    904.82722   -9.9411269   -4.3201351   0.13187892   -4.1302833   0.10108697 
   37400    912.68892    55.966026   -4.3229065   0.13170558   -4.1280951   0.10334957 
   37500    916.37672   -8.5387177    -4.310378   0.12334268   -4.1343366    0.1131013 
   37600    871.41393   -52.040941   -4.3090748   0.11861458   -4.1314484   0.10616273 
   37700    950.72866   -30.190042      -4.3268   0.13960371   -4.1360212   0.10512935 
   37800    900.55184   -23.509975   -4.3294463   0.12949048   -4.1410896   0.10246176 
   37900    893.19051    20.021715    -4.317384   0.12753442   -4.1344879   0.10256609 
   38000    878.84297    49.361405   -4.3300342    0.1274421   -4.1403294  0.098865683 
   38100    911.32712   -8.2623746   -4.3311237   0.12742277   -4.1374164   0.10748336 
   38200    897.06484    14.699543   -4.3389656    0.1332416   -4.1389757  0.097602593 
   38300    873.03583    43.744927   -4.3304204   0.12362922   -4.1328201   0.10132982 
   38400    914.58751    82.178818   -4.3293931   0.13352951   -4.1336594    0.1019381 
   38500    903.50909    22.933307   -4.3379788   0.13214403   -4.1366278    0.1004599 
   38600    917.30014    26.552664   -4.3376707   0.13475111   -4.1430935   0.10137414 
   38700    923.62778   -32.972244   -4.3354397   0.12663939   -4.1418791   0.11156095 
   38800    899.92558    26.765787   -4.3368913     0.127341   -4.1401663   0.10455159 
   38900    899.90707   -38.679098   -4.3239601   0.12580473    -4.137519   0.10615879 
   39000    906.39435   -55.969111   -4.3314233   0.12668161   -4.1448818   0.10695558 
   39100    891.73697    68.441487   -4.3347743   0.12490939   -4.1348138   0.10493599 
   39200    894.42854   -59.614805   -4.3367449   0.12536215   -4.1387604   0.10517325 
   39300    886.44185    -46.18496   -4.3263143    0.1218349   -4.1301671    0.1067608 
   39400    899.02014   -70.642778   -4.3342784   0.13029579   -4.1317406   0.10121132 
   39500    909.16724   -47.487317   -4.3355689   0.12697817   -4.1299058   0.10737826 
   39600    927.45241    80.191215    -4.343683   0.12918513   -4.1366093   0.10990181 
   39700    871.01859   -50.910431   -4.3577678   0.12963993   -4.1385816  0.094488534 
   39800    903.33999   -37.737618   -4.3605607   0.13182521   -4.1447095   0.10074971 
   39900    894.17423   -6.0397792   -4.3580783   0.12305793   -4.1530354   0.10752389 
   40000    867.86733   -74.467189   -4.3642417   0.12026145   -4.1462529   0.10349591 
   40100    873.86966   -21.007016   -4.3633185    0.1227513   -4.1429788   0.10247177 
   40200    904.17007   -21.017455   -4.3656002   0.12819133     -4.14509   0.10478265 
   40300    917.70578    3.9467005   -4.3622339   0.13399699   -4.1416662   0.10227284 
   40400    893.49393    32.655959   -4.3552409   0.12952946   -4.1404784   0.10055288 
   40500     902.3656    33.724236   -4.3722117   0.13146766   -4.1474593   0.10086702 
   40600    907.32967    38.549944   -4.3659638   0.12438121    -4.145911   0.10961707 
   40700    887.69653   -13.115781   -4.3634173   0.12147541   -4.1443763   0.10747011 
   40800    873.61393    21.948209   -4.3671583    0.1179294   -4.1484972     0.107464 
   40900    881.17725   -68.554264   -4.3763577   0.12351526   -4.1528789   0.10360416 
   41000    924.98308   0.92446745    -4.375406   0.12641246   -4.1485024   0.11215779 
   41100    905.38812   -15.408948   -4.3712952   0.12178682   -4.1431457   0.11182566 
   41200    918.42267   -38.549789   -4.3753239   0.12597576   -4.1450861   0.11087974 
   41300    909.78453   -45.942264   -4.3753088    0.1271356    -4.147278   0.10737644 
   41400    895.15795   -75.810488   -4.3754358     0.123132   -4.1493985   0.10770653 
   41500    878.36285   -17.825411   -4.3810552   0.12490796   -4.1526834   0.10139784 
   41600    898.54936     14.77788   -4.3812136    0.1267324   -4.1540869   0.10482599 
   41700    929.29466   -41.679725   -4.3881289   0.13484364   -4.1533533   0.10445156 
   41800    900.67884    15.654363   -4.3850209   0.12248361   -4.1547657    0.1098481 
   41900    908.11302    32.839191    -4.386657   0.11994737   -4.1562103   0.11447709 
   42000    866.58023    37.909442   -4.3968822   0.11771184   -4.1558656   0.10583072 
   42100    924.40656    92.954783   -4.3994593   0.12560247   -4.1471974   0.11285518 
   42200    918.42953    18.057914   -4.3915852   0.12296175   -4.1574387   0.11404433 
   42300    934.08011    90.109106   -4.3875623   0.12469406   -4.1548858   0.11636867 
   42400    919.98659    33.906374   -4.3835374   0.12063483   -4.1552856   0.11689821 
   42500    873.29121   -26.656314   -4.3861125   0.11657033   -4.1518372   0.10880474 
   42600    867.08595   -33.406968    -4.390576   0.11602913   -4.1455638   0.10773033 
   42700    918.19657   -76.226528   -4.3954487    0.1237211   -4.1493735   0.11318585 
   42800    840.07452   -53.330751   -4.3932165   0.10711936   -4.1469192   0.10993093 
   42900    902.59865    50.024774   -4.3966822   0.12523019   -4.1440103   0.10747405 
   43000    890.86996    2.2285856   -4.3902694   0.11790926   -4.1409674   0.11205218 
   43100    900.11155    85.594031   -4.3846356   0.11652694    -4.143026   0.11594865 
   43200    915.75946    11.004773   -4.3876883   0.11760239   -4.1509153   0.11896156 
   43300    889.77415    14.086761   -4.4025595   0.12109334   -4.1584942   0.10842091 
   43400    884.83757    -27.88112   -4.4083069   0.11980543   -4.1627319   0.10846585 
   43500    893.99526   -25.675946   -4.4006949   0.11736255   -4.1531206   0.11345303 
   43600     892.7991    18.561502   -4.4157733   0.12170948   -4.1555084   0.10857495 
   43700     924.8578   -28.645097   -4.4040189   0.11986309   -4.1582543   0.11899728 
   43800     892.1475   -34.335632   -4.4110179   0.12038333    -4.157517   0.10979411 
   43900    882.45174    17.366066   -4.4166902   0.12160543   -4.1570039   0.10594556 
   44000     900.1322    27.019579   -4.4204664    0.1222858   -4.1608893   0.10991099 
   44100    895.24234     78.51233   -4.4216281   0.11921622     -4.15802   0.11183792 
   44200    843.26938    33.077047   -4.4293043   0.11909922   -4.1552003  0.098205308 
   44300    901.13234   -51.337824   -4.4270388   0.12038448   -4.1575348   0.11217087 
   44400    877.30846   -72.365336   -4.4270573   0.11933653   -4.1579581   0.10696522 
   44500    915.08927   -70.857227   -4.4355496   0.12549963   -4.1628244   0.11049714 
   44600     925.0028   -44.407873   -4.4378378    0.1284249   -4.1601693   0.11005123 
   44700    880.57912   -113.54489   -4.4490566   0.12734891   -4.1687551  0.099422973 
   44800    910.67387   -11.504412   -4.4389552   0.12669623   -4.1699894   0.10807287 
   44900    900.01432    5.3354517   -4.4655479   0.13657648   -4.1735663  0.094883728 
   45000    899.73968    10.384847   -4.4627677   0.13124639   -4.1737667   0.10040422 
   45100    893.53387    10.753947   -4.4672242   0.12534416   -4.1783535   0.10495534 
   45200    892.83491   -66.280069   -4.4685269   0.12831368   -4.1742836   0.10165424 
   45300    896.99109   -30.049326   -4.4488281   0.12545064   -4.1753482    0.1057586 
   45400    897.78229    62.701452   -4.4666374   0.12292927   -4.1813091   0.10861383 
   45500    864.51998   -27.140375   -4.4670566   0.11692343   -4.1839026   0.10611277 
   45600    902.26878    48.985644   -4.4678536   0.12531171    -4.179036    0.1073012 
   45700    941.13163    30.737607   -4.4682459   0.12739559   -4.1785622   0.11540007 
   45800    916.67359    47.067901   -4.4738259   0.12994988   -4.1771176   0.10624653 
   45900    901.14403    84.293104   -4.4703466    0.1252236   -4.1785537   0.10709599 
   46000    883.24704   -33.418758   -4.4749985   0.12425048   -4.1836301   0.10338045 
   46100    866.39947    2.6206945   -4.4735983   0.12167239   -4.1811396   0.10162684 
   46200    911.55954   -9.9458735   -4.4888743   0.13147819   -4.1850275   0.10328928 
   46300    883.55022    15.054738   -4.4874461   0.12396995   -4.1789016   0.10375506 
   46400    894.71241    14.184776   -4.4862114   0.12018003   -4.1874154   0.11068629 
   46500    914.28926   -5.0580785   -4.4814871   0.12113837   -4.1833162   0.11486193 
   46600    925.93177    67.595011   -4.4895711   0.12747462   -4.1867483   0.11129428 
   46700    946.10775     45.09308   -4.4797215   0.12678877    -4.180187   0.11735384 
   46800    873.77169    35.089591    -4.472196    0.1196348   -4.1675598   0.10571616 
   46900    939.92498    20.954321   -4.4903547   0.13436386    -4.170713    0.1077685 
   47000     885.9122   -7.2358745   -4.4896102   0.12388167   -4.1830656   0.10447283 
   47100    904.88375    25.015608   -4.4818649   0.12561989   -4.1767432    0.1076699 
   47200    909.74895    -63.85235    -4.476825   0.12148439   -4.1738951   0.11329718 
   47300     892.4198   -25.407413    -4.497516   0.13043904    -4.180466  0.099314119 
   47400    905.53288    4.4460002   -4.4970711   0.12829298   -4.1823445   0.10503667 
   47500    902.89547    9.4095289   -4.4955529   0.12437096   -4.1843047   0.10845426 
   47600    901.15684  -0.54727926   -4.4909469   0.12379364    -4.178776   0.10859992 
   47700    904.59663   -37.131926   -4.5042709   0.12994946    -4.183605   0.10305064 
   47800    896.71008   -13.982688   -4.4979658   0.12281977   -4.1834964   0.10844496 
   47900    869.63264   -99.665173   -4.5102781   0.11878356   -4.2006765   0.10551396 
   48000    903.81223   -60.762187   -4.5021204   0.12683726   -4.1949073   0.10610885 
   48100    859.07725   -9.2387117   -4.5072323   0.12565976   -4.1899579  0.095504717 
   48200    885.12193    13.060383   -4.4995134   0.12071066   -4.1893595    0.1075912 
   48300    895.65558   -82.714191   -4.5059651   0.11987061   -4.1974427    0.1112606 
   48400    908.93251   -53.426606   -4.5190463    0.1297835   -4.1962511   0.10437234 
   48500     913.1719    41.701718   -4.5058051   0.12695106   -4.1950832    0.1084666 
   48600     890.8343    32.291259   -4.5182652    0.1285344   -4.2002088   0.10089314 
   48700    865.21579   0.80343356   -4.5199976   0.12278329   -4.1977605   0.10014782 
   48800    915.44472   -56.274197     -4.51406   0.12811237   -4.1955375    0.1078495 
   48900    927.81081   -55.275254   -4.5105839   0.13139713   -4.1915964   0.10767548 
   49000    878.28354   -20.314909   -4.5154639   0.12376331   -4.1957618     0.102578 
   49100    865.45889   -56.218288   -4.5072197   0.11534466   -4.1966096   0.10801797 
   49200     913.3576   -8.6665874   -4.5190867   0.12737503   -4.2013232   0.10807085 
   49300    881.45524   -24.687228    -4.516615   0.12587605   -4.1970684   0.10120041 
   49400    903.67088   -3.2604795   -4.5231563   0.13214088   -4.1992351   0.10050603 
   49500    903.90987    40.893799   -4.5242141   0.12911809   -4.1968498   0.10374128 
   49600    910.76719   -10.615571   -4.5249216   0.12440256   -4.2037671   0.11050445 
   49700    901.76582    35.071365   -4.5279324   0.12320321   -4.2079623   0.10938066 
   49800    932.84598   -19.213645    -4.540074   0.13561458   -4.2125974   0.10458248 
   49900    881.28318    4.2418443    -4.533966    0.1258581   -4.2155046   0.10117371 
   50000    922.31369    4.8724985   -4.5357668   0.13378233   -4.2132872   0.10371765 
   50100    891.08873   -76.757368   -4.5279651    0.1227342   -4.2135334   0.10704698 
   50200    919.56335    13.083416   -4.5487494   0.13774109   -4.2170416  0.098835561 
   50300    920.59366   -34.475622   -4.5418015   0.13373058   -4.2135718   0.10331672 
   50400    896.05244    73.521893   -4.5376452   0.12482843   -4.2181462   0.10616309 
   50500     925.1348     117.6817   -4.5477439    0.1289866   -4.2261641   0.10949674 
   50600    942.71187    62.379566   -4.5494097   0.13278705   -4.2247563   0.11016072 
   50700     916.1662    94.802037   -4.5511404   0.13030913   -4.2219827   0.10573526 
   50800    888.48666    17.700936   -4.5474788   0.12467363   -4.2207996   0.10432314 
   50900     900.9728    33.582971   -4.5617914    0.1328481   -4.2168306  0.099049814 
   51000    885.17171    13.584574    -4.553025   0.12648194   -4.2102852   0.10154823 
   51100    890.40859    24.562683   -4.5469371   0.12510121    -4.213806   0.10438313 
   51200    909.00627    18.249655   -4.5550418   0.13180939   -4.2094659   0.10226597 
   51300    915.11106    36.754965   -4.5540272   0.13078134   -4.2136359   0.10496048 
   51400    912.26435    1.8091742    -4.555619   0.12966166   -4.2165564   0.10538201 
   51500    848.43293   -18.939034   -4.5598245   0.11897737    -4.216149  0.099699788 
   51600    908.24437    12.253179   -4.5606886   0.12557742   -4.2142646    0.1086039 
   51700    876.60399    58.132241   -4.5592599   0.12012375   -4.2126697   0.10595269 
   51800    914.77065   -17.638916   -4.5537964   0.12462502   -4.2129274   0.11133059 
   51900    926.54388   -10.462746   -4.5555885   0.13053944   -4.2050374   0.10824019 
   52000    891.15935   -5.9390181   -4.5636055   0.12502228   -4.2129531   0.10466465 
   52100    890.90114   -18.092603   -4.5667391   0.12584855    -4.215949   0.10372926 
   52200    884.28892    107.20479   -4.5692215   0.12270982   -4.2198651    0.1052729 
   52300    895.26262    17.006468   -4.5693099   0.12811009   -4.2136879   0.10251042 
   52400    886.07309   -48.282847   -4.5671929   0.12594294   -4.2111287    0.1023524 
   52500    950.05335     160.1723   -4.5654986   0.13108969   -4.2172181   0.11388489 
   52600    881.71611    12.140533   -4.5678735   0.12187111    -4.224993   0.10547208 
   52700    908.75279    48.531048   -4.5631664   0.12097957    -4.222289   0.11356326 
   52800    927.64506    25.825461   -4.5734003   0.12880574    -4.220444   0.11035091 
   52900    863.58429    -45.94444   -4.5782204   0.11855719   -4.2272149   0.10415072 
   53000    945.80287   -29.945385   -4.5637226   0.12441312   -4.2290904   0.11976607 
   53100    914.62822   -97.060077   -4.5710378    0.1238043   -4.2225861   0.11215412 
   53200    894.16592 -0.093182075   -4.5804202   0.12438159   -4.2264245    0.1061327 
   53300    909.24843   -58.072971   -4.5838088   0.12351485   -4.2285987   0.11103402 
   53400    928.86927    11.286107   -4.5839609   0.12876635   -4.2273989   0.11071624 
   53500    885.27337    58.606547   -4.5840599   0.11924911   -4.2275112   0.10916498 
   53600    891.74798   -66.083049   -4.5966477   0.12635208   -4.2369185     0.103425 
   53700    927.85449   0.91810191   -4.5817228   0.12549574   -4.2318107   0.11387971 
   53800    917.83581    107.07205   -4.5928473   0.13151664   -4.2319399   0.10491003 
   53900    917.23151     21.01232   -4.5919396   0.12710777   -4.2373603   0.10937659 
   54000    862.80543    19.505308   -4.5878314   0.11775763   -4.2338494   0.10478362 
   54100    908.38185   -17.234816   -4.5899102   0.12524135   -4.2334223   0.10899295 
   54200    886.93038    27.628158   -4.5931099    0.1251323    -4.232109   0.10342995 
   54300    889.97075    7.3250702   -4.6008216   0.12737056   -4.2375407   0.10188588 
   54400    936.94639    35.748328   -4.5941371    0.1298979   -4.2375631   0.11166656 
   54500    921.40183     36.41178   -4.6061248   0.13139481   -4.2413767   0.10598168 
   54600    903.05175    56.269068   -4.6029043   0.12906787   -4.2445393   0.10356687 
   54700    878.19993    1.0858023   -4.6028578   0.12355477   -4.2490362    0.1027747 
   54800    900.56159   -17.408809   -4.6094499   0.12767479   -4.2467546   0.10436965 
   54900    921.56795    123.68288   -4.6102604   0.12442706   -4.2455566   0.11333732 
   55000    924.28865     66.82342   -4.6047689   0.13009246   -4.2397504   0.10811235 
   55100    844.28227     28.70285   -4.6008034   0.11639534   -4.2385438   0.10131073 
   55200    891.75246   0.75897449   -4.6056685   0.12558557   -4.2397822   0.10423053 
   55300    893.29627   -29.252774   -4.6134977   0.12664346   -4.2407333   0.10352902 
   55400    880.27333    19.447344   -4.6084205   0.12032166   -4.2497686   0.10671616 
   55500    910.34976    9.2682417   -4.6184499    0.1309943   -4.2495744   0.10347686 
   55600    872.75394   -25.306288   -4.6208927   0.12660842   -4.2509171  0.098128964 
   55700    916.61319   -22.838748   -4.6148614    0.1275862   -4.2530431    0.1087109 
   55800    880.65457    35.261903   -4.6148474   0.12288723   -4.2461026   0.10412485 
   55900    918.93342    56.393743   -4.6068086   0.12797648   -4.2441094   0.10891544 
   56000    920.60972     42.98962   -4.6074235   0.12591319   -4.2445035   0.11152423 
   56100    885.36769    -65.75941   -4.6095737   0.12280955   -4.2444421   0.10545376 
   56200    893.89794   -22.159131   -4.6019919   0.12305074   -4.2452837   0.10745831 
   56300    923.99559    -25.22291   -4.6109796   0.13064867    -4.242735   0.10745112 
   56400    871.78332   -11.727565   -4.5997621   0.11829821   -4.2489404   0.10659248 
   56500    888.74777    10.110499   -4.6046023    0.1253982    -4.247519   0.10363191 
   56600    848.47373   -93.022115   -4.6094478   0.12194292   -4.2499826  0.096598651 
   56700    893.88803  -0.23680744   -4.6029441   0.12535169   -4.2489516   0.10504116 
   56800    905.70152   -46.852297   -4.6026842   0.12677645   -4.2464645   0.10667269 
   56900    912.96423   -39.213474   -4.6139018   0.12865288   -4.2424053   0.10662582 
   57000    897.64896    45.235828    -4.609492    0.1243529   -4.2405601   0.10708464 
   57100    904.06728   -24.933527   -4.6213431   0.12842656   -4.2504206    0.1045086 
   57200    913.65747   -35.670278    -4.608903   0.11884341    -4.252103   0.11710296 
   57300    901.60796   -46.064082   -4.6195664   0.12509716   -4.2534681   0.10735144 
   57400    901.70465   -54.444384   -4.6157868   0.12334744   -4.2530498   0.10921313 
   57500    909.72096   -80.737635   -4.6178457   0.12224652   -4.2552255   0.11249002 
   57600    908.84866   -39.037009   -4.6245918   0.12850624    -4.256636   0.10569045 
   57700    892.89173   -30.369875   -4.6229535   0.12549531   -4.2608614   0.10462677 
   57800    892.75862   -27.187311   -4.6280972   0.12758859    -4.265726   0.10239494 
   57900    921.64886    47.554074     -4.61364   0.12427625   -4.2587506   0.11351699 
   58000    866.20046    31.987106   -4.6244831   0.12207712   -4.2585376   0.10114946 
   58100    891.04895    30.940802   -4.6214631   0.11989634   -4.2560346   0.11001439 
   58200      917.119  -0.58808963   -4.6288828   0.12852071    -4.255046   0.10786413 
   58300    894.76558   -22.199714   -4.6213239   0.11952644   -4.2562689   0.11138621 
   58400    901.12351    53.662996    -4.621142   0.11747447   -4.2528168   0.11522218 
   58500    891.84665   -13.790755   -4.6347642   0.12242318   -4.2541435   0.10757394 
   58600    948.96711   -5.0119537   -4.6364025   0.13427839   -4.2477552   0.11025131 
   58700    897.11648     25.51787   -4.6390069   0.12964143   -4.2509714   0.10139414 
   58800    958.82179    2.2015896   -4.6302652    0.1318577   -4.2542805   0.11539966 
   58900     892.8993   -9.3376623   -4.6296706   0.12231243   -4.2539619   0.10796876 
   59000    925.72387    29.067605     -4.63593   0.12655024   -4.2537123   0.11220926 
   59100    899.60221   -29.375919   -4.6322723   0.12522707   -4.2498459   0.10668428 
   59200    888.64719   -67.171816   -4.6295303   0.12701087   -4.2504021   0.10191303 
   59300    921.33325    97.232407   -4.6448302   0.13327126   -4.2545773   0.10399445 
   59400    879.33264    9.1561894    -4.636439   0.12100442   -4.2627945   0.10575073 
   59500    881.54324   -5.6369154   -4.6397533   0.11860099   -4.2633392   0.10885785 
   59600    907.79545   -36.083446   -4.6552681   0.12589546   -4.2672834   0.10815135 
   59700     896.4993    -28.67993   -4.6475781   0.12406521   -4.2636651   0.10708226 
   59800    891.71413    6.6342227   -4.6491446   0.12876669   -4.2564316   0.10088225 
   59900    894.26288    1.1388373   -4.6459815   0.12520323   -4.2549695   0.10529617 
   60000    912.00844    52.875965     -4.64372   0.12558388   -4.2609336   0.10959334 
   60100    877.58374     51.80722    -4.642446   0.12063215    -4.261467    0.1056785 
   60200    903.97031    62.874808   -4.6596697   0.13298748    -4.261092  0.099696893 
   60300    881.93809    36.296921   -4.6509764   0.12349326   -4.2605939    0.1038286 
   60400    899.45193    52.771126    -4.653563   0.12867473   -4.2569708   0.10302667 
   60500    888.39807   -0.1621299   -4.6623052   0.12825598   -4.2598436   0.10054052 
   60600    920.88661   -21.143498    -4.661641   0.13102342   -4.2674578   0.10623504 
   60700    884.13179    1.7013507   -4.6585218   0.12246608   -4.2682393   0.10548708 
   60800    916.55521   -47.548044   -4.6617542   0.13656883   -4.2597143  0.099269544 
   60900    920.61233    48.795644   -4.6657746   0.13516454   -4.2590868   0.10181692 
   61000    865.34818   -8.2692938   -4.6503013   0.11555845   -4.2600131   0.10776432 
   61100    883.84096    59.719677   -4.6618019   0.12383135   -4.2554824   0.10397745 
   61200    915.54984     6.297374    -4.671724   0.12939572   -4.2629711   0.10653063 
   61300    899.74456   -84.476013   -4.6555915    0.1183419    -4.267261   0.11394698 
   61400    884.55819   -28.753769   -4.6680476   0.12015036   -4.2742918   0.10802996 
   61500    899.78289   -40.753066   -4.6708809   0.12736339    -4.276768   0.10449033 
   61600    889.02259   -10.601949   -4.6624336   0.12468346   -4.2732737   0.10445467 
   61700    886.43322    18.075491    -4.674285    0.1266781   -4.2707633   0.10167626 
   61800    926.64817    20.223431   -4.6802235   0.13704903   -4.2707018   0.10143689 
   61900    907.04753    4.8705658   -4.6703073   0.12901257     -4.27344   0.10468244 
   62000    849.22041    26.758123   -4.6720473   0.11733154   -4.2750765   0.10163526 
   62100    906.30152    37.547749   -4.6707586   0.12144162   -4.2767662   0.11242965 
   62200    920.15409   -22.285918   -4.6680868   0.12169944   -4.2730288   0.11582538 
   62300    888.44394   -16.145183   -4.6603854   0.11957325   -4.2636288   0.10966397 
   62400    959.84431      41.2877   -4.6664363   0.13175131   -4.2669082   0.11578193 
   62500    915.35793    -9.325744   -4.6710814   0.12414046   -4.2731644    0.1119945 
   62600    860.72105   -73.577569    -4.674976   0.11704394   -4.2695229   0.10498087 
   62700    913.07888   -38.993714   -4.6746004   0.12660208   -4.2663774   0.10880819 
   62800     882.0912   -46.180245   -4.6759592   0.11854669    -4.270506   0.10905987 
   62900    906.69233    16.461504   -4.6693183   0.11669089   -4.2669106    0.1175183 
   63000    915.15494     17.61248   -4.6710385   0.12090258   -4.2663279   0.11533848 
   63100    874.10005   -16.982424   -4.6747641   0.11698189   -4.2666141   0.10858692 
   63200    926.69642   -25.894845   -4.6709982   0.12193379   -4.2723036   0.11731098 
   63300    917.01033    36.913484   -4.6705595   0.12301622   -4.2675148   0.11361156 
   63400    858.20712    27.254806    -4.677367   0.11958027   -4.2650912     0.101654 
   63500     894.4978   -110.19402   -4.6768234   0.12076878    -4.270547   0.11001167 
   63600    939.09546   -37.453599    -4.671812   0.12503224   -4.2663211   0.11734118 
   63700    902.87696   -13.103811    -4.670669   0.12248143   -4.2595199   0.11043215 
   63800     911.3843    21.155808   -4.6735702   0.12070003   -4.2631045   0.11455308 
   63900    872.68281   -8.6289461   -4.6820134   0.11690039   -4.2665554   0.10829736 
   64000    913.60308    19.785041    -4.671411   0.11786936   -4.2675501   0.11811069 
   64100    925.26096    37.045354   -4.6758661   0.12283365   -4.2689317   0.11598679 
   64200    875.99453    5.5586838   -4.6814495   0.11575678   -4.2704847   0.11037391 
   64300    940.66976   -20.342129   -4.6839738   0.12460791   -4.2768894   0.11820311 
   64400    915.07563   -22.658194   -4.6736015   0.11874234   -4.2666276   0.11758436 
   64500    934.93371   -20.066109   -4.6851744   0.12813771   -4.2686231   0.11298095 
   64600    907.43742    -15.45847     -4.68404   0.12274315   -4.2713546   0.11136451 
   64700    902.12932    18.861063   -4.6808092   0.11946738   -4.2717434    0.1133971 
   64800     925.4172    4.3146161   -4.6781133   0.12450833    -4.268966    0.1142708 
   64900    944.32843   -11.863496   -4.6849163   0.12810687   -4.2697916   0.11549976 
   65000    918.46353    -18.05732   -4.6898604   0.12368443   -4.2740054   0.11329498 
   65100     909.5803    5.4286475   -4.7002451   0.12521816   -4.2799916   0.10933447 
   65200    903.45357    103.32257   -4.6907907   0.12186067   -4.2807437   0.11123616 
   65300    905.51808    96.975565   -4.6896156   0.12092648   -4.2784849   0.11276286 
   65400     898.9427    76.055804   -4.6851746   0.11740632   -4.2788026   0.11471651 
   65500    937.09501   -27.531992   -4.7087124    0.1319424   -4.2853388   0.10956048 
   65600    918.11666    34.015628    -4.709271   0.12944927   -4.2813315   0.10715379 
   65700    879.52935   -17.326593   -4.6986268   0.11982947    -4.283277   0.10703573 
   65800    904.62657    29.199091   -4.7039812    0.1246002   -4.2845325   0.10867186 
   65900    903.88394    37.554393   -4.7085984   0.12637976    -4.288996   0.10660791 
   66000    909.51871    4.2459639   -4.7136515   0.12438615   -4.2920532   0.11019125 
   66100    931.13441    26.378232   -4.7092136    0.1282968   -4.2883149   0.11180847 
   66200    891.84906    3.5839953   -4.7224797   0.12781558   -4.2884898   0.10191601 
   66300     899.4127    32.445746   -4.7208195   0.11946388    -4.293935   0.11268179 
   66400    898.47544    59.034868   -4.7139458     0.121999   -4.2880491   0.10977347 
   66500    929.58998    33.104389   -4.7119243   0.12156488   -4.2825599   0.11846393 
   66600    944.09157    64.232647   -4.7244916   0.13027363   -4.2843775   0.11316336 
   66700    890.15599    8.2027113   -4.7235027   0.12265227   -4.2892548    0.1068861 
   66800    892.33747    5.7589009   -4.7178324   0.11504587   -4.2882003    0.1154453 
   66900    911.59342    11.742814   -4.7230819   0.12523982   -4.2821286   0.10984454 
   67000    912.62716   -10.424523   -4.7223449   0.12169772   -4.2858718   0.11383507 
   67100     911.7369   -13.715383   -4.7200798   0.11935385   -4.2896742   0.11605902 
   67200    944.10055    13.912459   -4.7322981    0.1312185    -4.281468   0.11217423 
   67300    923.72089    29.391587   -4.7261839   0.12394147   -4.2832485   0.11441669 
   67400    866.74999   -50.339225    -4.730244   0.11583624   -4.2854272   0.10784383 
   67500    891.80432    16.128709   -4.7273863   0.11766726   -4.2800589   0.11255341 
   67600    908.94338    43.106359   -4.7283271   0.12197821   -4.2808323   0.11256578 
   67700    875.76027    17.536659   -4.7312978    0.1197093   -4.2858646    0.1061643 
   67800    855.68348    19.766879   -4.7325924   0.11490435    -4.284283   0.10589281 
   67900    910.95236    104.65499   -4.7320021   0.11946017   -4.2824306   0.11573982 
   68000     928.8389    56.175258    -4.727737   0.12692489   -4.2787495   0.11264056 
   68100    882.16797    45.902355    -4.730411   0.11902522   -4.2854723   0.10857803 
   68200    896.74136    24.319813   -4.7344424   0.11936678   -4.2883755   0.11207667 
   68300    902.06758   -25.649084   -4.7282705    0.1165782   -4.2881357   0.11641255 
   68400    882.54066    13.820784   -4.7403002   0.12323018   -4.2863947   0.10426415 
   68500    927.16009   -35.280734   -4.7299037   0.12533842    -4.280869   0.11386102 
   68600    921.67736   -113.89271   -4.7373369   0.12393702   -4.2873272   0.11388051 
   68700    930.52543   -40.759049   -4.7328262   0.11983686   -4.2829192   0.12052482 
   68800     881.6905    47.199938    -4.739582   0.11556294   -4.2870782   0.11208484 
   68900    909.54114    19.153457   -4.7451681   0.11850135   -4.2932967   0.11637246 
   69000    927.76978   -13.704834   -4.7372178   0.11976827   -4.2895896   0.11986747 
   69100     918.8508    11.924202   -4.7334411   0.11896404   -4.2858432   0.11835087 
   69200     877.9182    22.070981   -4.7304812   0.11286924   -4.2838874   0.11391311 
   69300    877.95781      16.9053   -4.7393761   0.11637212   -4.2850938   0.11024781 
   69400    925.12475    57.864141   -4.7413449    0.1242978   -4.2798524   0.11441432 
   69500    898.34168    45.675694   -4.7385796   0.11761371   -4.2813023   0.11433982 
   69600    886.82206    11.964757   -4.7409817   0.11697028   -4.2798293   0.11196617 
   69700    852.43192   -36.814352   -4.7380236   0.11143025   -4.2775491   0.10867782 
   69800    904.40628   -33.261135   -4.7380297   0.11787384   -4.2819387   0.11567193 
   69900    863.51706    21.922942   -4.7474078   0.11487976   -4.2849293   0.10799188 
   70000    878.19947    37.348387   -4.7483348   0.11648745   -4.2847384   0.11019075 
   70100    909.19384   -21.477603   -4.7349092    0.1148056   -4.2832234   0.12015872 
   70200    864.37667   -48.714133   -4.7397591   0.11141895   -4.2878809   0.11185102 
   70300    892.04086   -66.298802   -4.7501893   0.12085317   -4.2841652   0.10927286 
   70400    945.11559   -23.081254   -4.7497836   0.12722491   -4.2834358   0.11663358 
   70500     886.4442    50.595504    -4.745203   0.11551236   -4.2837048   0.11339605 
   70600    880.00882    14.982347   -4.7513449   0.12040233   -4.2810949    0.1065615 
   70700    926.87367   -32.766837   -4.7525727   0.12317111    -4.283192    0.1160595 
   70800    921.87861   -48.734112   -4.7491095   0.11997936   -4.2847792   0.11808678 
   70900    872.73973   -52.706366   -4.7433939   0.11065499   -4.2866883    0.1148661 
   71000     862.6594   -39.065262   -4.7477709   0.10863547   -4.2901943    0.1143174 
   71100    913.98174   -44.792103    -4.748815   0.11550388   -4.2863681   0.12069315 
   71200    920.56545   -29.714963    -4.757746   0.11932055    -4.287816   0.11843056 
   71300    893.56835    -11.61678   -4.7502925   0.11477282   -4.2837204   0.11605761 
   71400    899.51959   -72.455306    -4.755263   0.12075106   -4.2849202   0.11135935 
   71500    929.50397   -42.543175    -4.759232   0.12444289   -4.2846454   0.11542109 
   71600    891.96577   -11.055418   -4.7572773   0.11992265   -4.2833366   0.11022943 
   71700    878.71812   -31.059964    -4.757183   0.11924941   -4.2804256   0.10742973 
   71800    920.90501       1.8461   -4.7456888   0.11712168   -4.2815095   0.12082784 
   71900    874.24176    42.269191   -4.7477887   0.11090878   -4.2822916   0.11499732 
   72000    884.10072    33.181186   -4.7557549   0.11281276   -4.2850163   0.11560867 
   72100     900.9546    59.677807   -4.7567081   0.11254876   -4.2884046   0.12034631 
   72200    882.25051    33.189096   -4.7568766   0.11501881   -4.2812498   0.11280404 
   72300    915.32582     57.47126   -4.7532175   0.12085723   -4.2803393   0.11543129 
   72400    893.78193    9.9764641   -4.7509693   0.11349363   -4.2900262   0.11745646 
   72500    885.81112    10.531488   -4.7490086     0.112099    -4.283031   0.11681034 
   72600     936.2514    3.5604972   -4.7544121   0.12124239   -4.2840266   0.12056537 
   72700    894.46425    62.475201   -4.7558034   0.11051574   -4.2903052   0.12076192 
   72800    909.07214    75.997305   -4.7672683   0.11841834   -4.2972661   0.11633544 
   72900    899.97884    40.829532   -4.7646933   0.11909744   -4.2951252   0.11321615 
   73000    877.66246   -9.6131663   -4.7583687   0.11356827   -4.2936713   0.11311189 
   73100    917.88438   -43.901916   -4.7526255    0.1123212   -4.2932073   0.12506582 
   73200    907.27822   -22.698535   -4.7492913   0.11330853   -4.2948133   0.12122269 
   73300    852.67344   -7.3892171   -4.7610201   0.11389077   -4.2934011   0.10615977 
   73400    907.31728    31.038626   -4.7650476    0.1225611   -4.2891603   0.11152375 
   73500    933.63388   -84.238241    -4.755987   0.12213275   -4.2933504    0.1189383 
   73600     910.0781   -51.699012   -4.7587173    0.1197808   -4.2924307   0.11517197 
   73700    904.00457   -12.245891   -4.7591833   0.12013296   -4.2879609   0.11319498 
   73800    884.81779   -68.797221   -4.7477252   0.11157633   -4.2928275   0.11709591 
   73900    910.80036   -1.5310999   -4.7544612   0.11931401   -4.2879602   0.11585295 
   74000    928.21335   -14.642433   -4.7528575   0.12265144   -4.2902869   0.11695938 
   74100    892.23162   -58.838026   -4.7536498   0.11134268    -4.299812   0.11930327 
   74200    903.30195    12.822605   -4.7545507   0.11677496   -4.2973235   0.11653277 
   74300    896.84202    -54.82798    -4.757594   0.12139369   -4.2963555   0.10997635 
   74400     879.8209   -30.612652   -4.7505418   0.11051054   -4.3013348   0.11689181 
   74500     919.9585    8.8332179   -4.7563719   0.11750352   -4.2996918   0.12017665 
   74600    879.34051    7.4641554   -4.7589027   0.11302611   -4.3020212   0.11412492 
   74700    867.62488    40.529519   -4.7642165   0.11363041   -4.3028642   0.11039009 
   74800    896.82924  -0.78460315   -4.7588937   0.11368987   -4.3005444   0.11805705 
   74900    940.85504   -5.7527551   -4.7562892   0.11929636   -4.2970441   0.12382588 
   75000    899.68355   -20.259833   -4.7577464   0.11470879   -4.2961647   0.11774327 
   75100     902.9866   -16.016241    -4.760389   0.11628632   -4.2927083   0.11696207 
   75200    900.57629   -71.610882   -4.7542203   0.11149917    -4.298271   0.12134759 
   75300    887.00269   -61.561141   -4.7575033   0.11401834   -4.3046848   0.11511163 
   75400    917.85948    -76.50734   -4.7543898   0.11590587    -4.300729   0.12129762 
   75500    882.27356   -87.587545   -4.7606943   0.11557872   -4.3075573   0.11222259 
   75600    930.69611   -32.985677   -4.7613477   0.11945793   -4.3073259   0.12096762 
   75700    869.27265   -54.336403   -4.7572901   0.10998486   -4.3048889   0.11465169 
   75800    905.75111   -24.037598    -4.758516   0.11475013   -4.3053829   0.11930576 
   75900    936.38969    33.635813   -4.7639323    0.1218605   -4.3053852   0.11995335 
   76000     905.2277    35.486673   -4.7589435   0.11580693   -4.3044353   0.11805827 
   76100    870.13373   -42.438055   -4.7594431   0.11163945   -4.3056031   0.11314332 
   76200    876.42431    10.805556   -4.7638863      0.11375   -4.3070095   0.11259349 
   76300    903.24633    34.943926   -4.7603103   0.11438513   -4.3078658   0.11902585 
   76400    899.91606    53.535848   -4.7619308   0.11680396   -4.3028083   0.11560621 
   76500    898.61364    25.810458   -4.7595818   0.11575221   -4.3057208   0.11636518 
   76600    915.30574    27.834282   -4.7588173    0.1153341   -4.3098438   0.12122173 
   76700    896.43949    6.5794085   -4.7581718   0.10790208   -4.3080097   0.12402737 
   76800    855.65664   -5.1858319   -4.7617338   0.10617042   -4.3083626   0.11505074 
   76900    905.29682  0.033474729   -4.7536183   0.10941853   -4.3038248   0.12478029 
   77000    904.48979   -6.4146494   -4.7713366   0.11487566    -4.303186    0.1188402 
   77100    900.35535    22.606533   -4.7631297   0.11337785   -4.3018413   0.11931771 
   77200    914.63568  -0.39279486   -4.7620259   0.11480086   -4.3023924   0.12160394 
   77300    899.24465    7.0277663   -4.7611627    0.1135481    -4.300933   0.11884508 
   77400    896.64437   -6.0753073    -4.764072   0.11364224   -4.3092398    0.1180581 
   77500    917.93481   -5.6008668   -4.7612802   0.11461056   -4.3154609    0.1226768 
   77600    930.66227    29.798144   -4.7624053   0.11743781   -4.3111216   0.12307851 
   77700    890.23581    29.140862   -4.7673923   0.11515841   -4.3107345   0.11477097 
   77800    904.93624    18.243425   -4.7649421   0.10732706   -4.3159285   0.12687956 
   77900    914.38326     36.79083   -4.7697576   0.11565413   -4.3151805   0.12064176 
   78000    908.96128    61.967132   -4.7630466   0.11566675   -4.3106494   0.11919351 
   78100    891.65204    27.832897   -4.7655794    0.1146137   -4.3103853    0.1157174 
   78200     891.3746   -3.2034824   -4.7735494   0.11758872   -4.3160615   0.11252211 
   78300    927.24439   -7.8923786   -4.7655626   0.11434566   -4.3087797   0.12541869 
   78400    890.21132   -30.450765   -4.7645102   0.11082605   -4.3016393   0.11931071 
[...]
  186400    1492.5463   -2.1224609   -5.2580545   0.18271063   -4.4059597   0.20329443 
  186500    1490.0435  -0.61098193   -5.2478367   0.18470381   -4.4059371   0.20054047 
  186600    1530.4545    1.8386379   -5.2549651   0.19243255    -4.402402    0.2031256 
  186700    1489.3659    2.5751167    -5.242144   0.17656315   -4.3980261   0.20890363 
  186800    1465.3473    3.1789014   -5.2535787   0.17824627   -4.4006488   0.20078055 
  186900    1444.5389  -0.52878091   -5.2406174   0.17109116   -4.3969314    0.2027816 
  187000    1522.6611   -2.9384589   -5.2598016   0.19199029   -4.3938986   0.20152705 
  187100    1403.2995   -4.1391524   -5.2636013   0.17194517   -4.3994194   0.19097084 
  187200    1505.2332   -2.6678079   -5.2639143   0.19246409   -4.3954015   0.19641733 
  187300      1565.73  -0.80368232   -5.2562809   0.19355603   -4.3915941   0.21128282 
  187400    1488.6116   -5.1106898   -5.2558805   0.18161064    -4.396689   0.20340735 
  187500     1503.153   -4.1611139   -5.2554709   0.18987548   -4.3945259   0.19858315 
  187600    1482.1237   -1.5425853   -5.2504931   0.18725729   -4.3917757   0.19576486 
  187700    1547.5503  -0.90874713    -5.248129   0.19147311   -4.3945137   0.20865704 
  187800    1503.5815   0.94064751   -5.2566758   0.18252145   -4.4017185   0.20641358 
  187900     1467.131  -0.23319928   -5.2458379   0.17932289   -4.3882724   0.20012289 
  188000    1497.4819    2.1169999   -5.2521831   0.17918988   -4.4004581   0.20829526 
  188100    1489.6256    1.4690653   -5.2543625   0.17591978   -4.4099746    0.2096475 
  188200    1503.2509  -0.41107449   -5.2647217   0.18740776   -4.4077633   0.20119858 
  188300    1438.4799   -1.5747204   -5.2619308   0.17978628   -4.4076258   0.19205369 
  188400    1477.9052   -3.2732615   -5.2485224   0.17485546   -4.4065794   0.20766237 
  188500    1541.3596  -0.34402287   -5.2583687   0.19270581   -4.4055057   0.20572504 
  188600    1510.2556    3.0784844   -5.2591611   0.19286236   -4.4010294   0.19732864 
  188700    1468.4529    1.2240389   -5.2519918   0.18251997   -4.4028357   0.19711785 
  188800    1553.6739  -0.94140622   -5.2573597   0.19816087   -4.4058532   0.20325986 
  188900    1505.5167    2.8515252   -5.2467204   0.18314041   -4.4014663   0.20627626 
  189000    1487.7013   0.76505196   -5.2590628   0.18342926   -4.4084034   0.20125804 
  189100    1529.2821    1.8006459   -5.2587166   0.19000902   -4.4124652   0.20535846 
  189200    1437.4348   0.55847161   -5.2507136   0.17656166   -4.4125085   0.19516088 
  189300    1458.0076  0.072392579   -5.2475241   0.18030798   -4.4099422   0.19667452 
  189400    1469.6269    2.4728378   -5.2435155   0.18311237   -4.4045515   0.19680694 
  189500     1522.656    3.5225103   -5.2421622   0.19323919   -4.3981873   0.20021516 
  189600     1516.688    0.7347894   -5.2458796   0.18268033     -4.40932   0.20971569 
  189700      1469.94    2.5475424   -5.2512442   0.18076237   -4.4100581    0.1993558 
  189800     1555.173    5.6483956    -5.246938   0.19366827   -4.4027926   0.20837099 
  189900    1469.8236   0.83273111   -5.2415995   0.18454043   -4.4064255   0.19536044 
  190000    1472.8728    2.6049358   -5.2545344   0.18777159   -4.4076154    0.1927768 
  190100    1541.2534   0.92252897   -5.2565517   0.18575573   -4.4185228   0.21299008 
  190200    1469.3692   -0.6844082   -5.2484124   0.17715909   -4.4171915   0.20298586 
  190300    1530.2868   -1.0431303   -5.2494002   0.18055657   -4.4146082    0.2155434 
  190400    1496.7353   -5.8286758   -5.2499365   0.17856317    -4.412936   0.20875531 
  190500    1479.5492   -3.6956155   -5.2562569   0.18268989   -4.4081254   0.19987635 
  190600    1480.5472   -5.0158898     -5.26169   0.18301161   -4.4182901   0.19980287 
  190700    1498.4943    -3.178175    -5.255202   0.18930353   -4.4092745   0.19795035 
  190800    1482.7264    -1.712579   -5.2553512   0.19651957   -4.4040662   0.18620492 
  190900    1534.7769   -1.0491314   -5.2437451   0.19389549   -4.3999129   0.20273442 
  191000    1474.8748   -1.8126622   -5.2546177   0.18924016   -4.4111775   0.19176561 
  191100    1545.8546   -1.1346152   -5.2500639   0.19314839   -4.4057809   0.20645027 
  191200    1506.7555    -3.801411   -5.2461412   0.18406944   -4.4071926   0.20562924 
  191300    1460.0998   -2.6979234   -5.2510929   0.18005432   -4.4137498   0.19749444 
  191400    1508.4693   -6.0537293   -5.2538632   0.18347482   -4.4114001   0.20670678 
  191500    1504.0485    -7.681013   -5.2449563   0.18591971   -4.4028958   0.20297118 
  191600    1473.8229   -2.5692706   -5.2481331   0.18830873     -4.40779   0.19246461 
  191700    1523.0129   -0.3828787   -5.2489612   0.19409372   -4.4084419    0.1994129 
  191800    1486.2263   -3.0465061   -5.2540897   0.18123252   -4.4179146   0.20317284 
  191900    1460.6832    -2.775525   -5.2545858   0.17831361   -4.4199233   0.19947548 
  192000    1465.0462   -4.6244616   -5.2660786   0.18369875   -4.4184753   0.19497926 
  192100    1521.8547   -1.9191247    -5.262594   0.18390265    -4.417428   0.20980046 
  192200    1504.9764    1.2656596   -5.2515503   0.17644242   -4.4100015   0.21316185 
  192300    1478.0132  -0.57893641   -5.2573092   0.17815028   -4.3990451   0.20423349 
  192400    1495.7424    1.3610951   -5.2568529   0.18396372   -4.3937154    0.2028254 
  192500      1516.04   0.11368998   -5.2555176   0.18729205   -4.4021887   0.20470481 
  192600    1461.0604    2.5855276   -5.2518558   0.17678849   -4.4167538    0.2011757 
  192700    1551.3662    4.1204461    -5.258227   0.19589825   -4.4181321   0.20502341 
  192800    1526.2939    4.4707922   -5.2554931   0.19198698   -4.4143133     0.202492 
  192900    1472.1521    5.2457794   -5.2603645   0.18021342   -4.4223152    0.2005173 
  193000    1578.6938    3.9985651   -5.2520824   0.18865341   -4.4242859   0.21985849 
  193100    1497.2028    4.0088557   -5.2585163   0.18679895   -4.4156093   0.20023672 
  193200    1500.2985   0.26444223   -5.2574772   0.18404544   -4.4152387   0.20394548 
  193300    1513.0448  -0.27147487    -5.265785   0.19079917   -4.4233066   0.20023189 
  193400    1493.7095   0.55522167   -5.2654413   0.18665991   -4.4177914   0.19945808 
  193500    1426.9477   -1.8700796   -5.2567939   0.18146468   -4.4167192   0.18724028 
  193600    1497.9706  -0.63941044   -5.2564911   0.19177378   -4.4064265   0.19521955 
  193700    1536.2316   -1.6574199   -5.2507754   0.19386462   -4.4011328   0.20315183 
  193800    1497.8278   -6.1205407   -5.2507199   0.18741696   -4.4054361   0.19975363 
  193900    1472.0981   -3.0700859     -5.24841   0.17970702   -4.4043662    0.2010344 
  194000    1579.9421    -3.666259   -5.2550149   0.19257313   -4.3992138   0.21607568 
  194100    1461.1113  -0.25073413   -5.2576067   0.18759245   -4.3905819   0.18985193 
  194200    1535.3124   0.66532751   -5.2483739   0.18723978   -4.4010573    0.2098604 
  194300    1496.8681      1.06288   -5.2642107   0.19076046   -4.4105527    0.1959911 
  194400    1464.9126   -2.1863477    -5.257199   0.18674469   -4.4129016   0.19174761 
  194500    1510.2452   -1.7662486   -5.2504167   0.18710302   -4.4050089   0.20336951 
  194600     1534.848   -3.1193829   -5.2484404   0.19312163   -4.4016211   0.20356531 
  194700    1443.4271  -0.54857281   -5.2475769   0.18439503   -4.4081956    0.1885268 
  194800    1485.6441     2.168621   -5.2648769   0.18926087   -4.4181556    0.1945941 
  194900    1530.5077  0.093998615   -5.2651925   0.18923563   -4.4226637   0.20649439 
  195000     1507.507    1.4207455   -5.2590053   0.18982737   -4.4138945   0.19978599 
  195100    1465.5132  0.027843966    -5.255271   0.18578327   -4.4076763   0.19291543 
  195200    1462.7923   -2.2711779   -5.2595858   0.17528075   -4.4149048   0.20321625 
  195300    1487.2597    -5.538434   -5.2621507   0.18688333   -4.4121181   0.19751661 
  195400    1507.7735   -2.2739618   -5.2647551   0.19261842    -4.404683   0.19692772 
  195500    1491.6969  -0.30263475   -5.2709535   0.18373554   -4.4107113   0.20199415 
  195600    1407.1029   -1.9135415   -5.2631813   0.16929347   -4.4118254   0.19476006 
  195700    1529.5558    2.0619947   -5.2626832   0.18922348   -4.4030685   0.20625521 
  195800    1537.4058   -1.5805208   -5.2598501   0.18577275   -4.4055772   0.21195388 
  195900     1469.098   -1.1208676    -5.262065   0.17938101    -4.405834    0.2005825 
  196000    1558.5441  -0.21255624   -5.2638359   0.19521074    -4.400126   0.20764459 
  196100    1530.7702    3.6286515   -5.2656161   0.19392059   -4.4057232   0.20164765 
  196200    1487.9335    3.3495525   -5.2548146   0.17772797   -4.4026141    0.2073022 
  196300    1506.9366    2.3584069   -5.2689779   0.18326811   -4.4112017   0.20651805 
  196400    1557.4239    1.7193843   -5.2668542   0.19421601    -4.409672   0.20839194 
  196500    1506.3616   -2.0620502   -5.2601094   0.18361495   -4.4062201   0.20600191 
  196600    1436.0949   -3.3883386   -5.2561555   0.17440923   -4.4075708   0.19706492 
  196700    1534.1966    -1.847337   -5.2460817      0.19394   -4.3983805   0.20253413 
  196800    1519.5263   -2.5377015   -5.2371841   0.18460083   -4.3870213   0.20845159 
  196900    1501.9978   -1.5495695   -5.2564762   0.19032004   -4.3882405   0.19781091 
  197000    1445.6689   -5.0827813   -5.2594187    0.1813291   -4.4016661    0.1923374 
  197100    1500.9296   -1.1095753    -5.262746   0.19572815   -4.3992268   0.19185312 
  197200    1537.0517   -3.0870471   -5.2669996   0.20033695   -4.3997181   0.19657708 
  197300    1464.5556   -2.3475187   -5.2534553   0.17713216   -4.4091978   0.20174012 
  197400    1546.6775   -1.4675682   -5.2620871   0.19166632   -4.4145074   0.20822328 
  197500    1471.3073   -1.5566793   -5.2613751   0.18657419   -4.4131576   0.19361897 
  197600    1502.7443     1.244896   -5.2619478   0.19030194    -4.417127   0.19802747 
  197700    1507.8802    2.1178995   -5.2663182    0.1889341   -4.4121038   0.20082212 
  197800    1468.9079    4.1630351    -5.261114   0.18507065   -4.4071742   0.19456169 
  197900    1479.7592    2.3856516   -5.2663605   0.18801873   -4.4012308   0.19434004 
  198000    1497.8598    3.9224726   -5.2722449   0.19276413   -4.4057087   0.19415098 
  198100    1551.6588    2.9890873   -5.2703778   0.19616516   -4.4106958   0.20482075 
  198200     1466.772    -1.064338   -5.2704859   0.17915503   -4.4119541   0.20020402 
  198300    1499.0632  -0.23292098   -5.2663433   0.18638444   -4.4113487   0.20116409 
  198400    1481.4788     2.227998   -5.2688801    0.1858625   -4.4113721   0.19705781 
  198500    1481.8074    5.4053382   -5.2729787   0.18645498   -4.4109355   0.19652306 
  198600    1516.4543   -1.3726571   -5.2679959   0.18871053    -4.416321   0.20332598 
  198700    1501.3226   -1.1712778   -5.2706833   0.19268773   -4.4038464   0.19514766 
  198800    1431.6124   -1.7112546   -5.2677898   0.17639305   -4.3952008   0.19379684 
  198900    1497.9958   0.45786129   -5.2729033   0.19034551   -4.3905368   0.19672499 
  199000    1539.1507    2.4126763   -5.2658094   0.19247338   -4.3906726   0.20538431 
  199100    1451.3424    0.3941881   -5.2723964   0.18328376   -4.3957314   0.19178782 
  199200    1548.0625     1.939458   -5.2783068   0.19181738   -4.4007587   0.20843133 
  199300    1519.0559    1.1823645   -5.2728937   0.18994736    -4.400662   0.20271664 
  199400    1462.2674   0.26024406   -5.2616858   0.18108284   -4.3937228   0.19698882 
  199500    1518.5257   -1.4530915   -5.2745157   0.19202732   -4.3991334    0.2003937 
  199600    1554.7731  -0.82707986   -5.2653278   0.18759593   -4.4043094    0.2146372 
  199700    1456.9518   0.99505659   -5.2668144   0.17414315   -4.4067896   0.20286423 
  199800    1487.6769  -0.22187718    -5.276748   0.18904198   -4.3971952   0.19536182 
  199900    1551.8191   0.50910508   -5.2602066   0.18914447   -4.3890505   0.21223042 
  200000    1538.5521    -1.488454   -5.2562201   0.18675483   -4.3983522    0.2112267 
Loop time of 570.973 on 4 procs for 200000 steps with 1121 atoms

Performance: 3.026 ns/day, 7.930 hours/ns, 350.279 timesteps/s
99.7% CPU use with 4 MPI tasks x 1 OpenMP threads

MPI task timing breakdown:
Section |  min time  |  avg time  |  max time  |%varavg| %total
---------------------------------------------------------------
Pair    | 83.143     | 245.72     | 492.4      |1032.9 | 43.04
Neigh   | 0.38143    | 0.65387    | 1.0463     |  32.3 |  0.11
Comm    | 69.27      | 271.91     | 469.53     | 858.3 | 47.62
Output  | 3.0621     | 3.073      | 3.1019     |   1.0 |  0.54
Modify  | 3.3518     | 47.853     | 171.42     |1032.7 |  8.38
Other   |            | 1.765      |            |       |  0.31

Nlocal:        280.250 ave        1099 max           0 min
Histogram: 3 0 0 0 0 0 0 0 0 1
Nghost:        9.00000 ave          23 max           3 min
Histogram: 1 2 0 0 0 0 0 0 0 1
Neighs:         0.00000 ave           0 max           0 min
Histogram: 4 0 0 0 0 0 0 0 0 0
FullNghs:      7842.00 ave       31326 max           0 min
Histogram: 3 0 0 0 0 0 0 0 0 1

Total # of neighbors = 31368
Ave neighs/atom = 27.982159
Neighbor list builds = 512
Dangerous builds = 0
reset_timestep 0
unfix 1
velocity 3 zero linear
velocity 3 zero angular
fix 1 3 nvt temp $t 300 0.001 fixedpoint 20.0 35.0 20.0
fix 1 3 nvt temp 1500 300 0.001 fixedpoint 20.0 35.0 20.0
thermo_style custom step temp press c_ape_C c_ake_C c_ape_Si c_ake_Si
thermo 100
timestep 0.0001
run 5000
WARNING: More than one compute ke/atom (src/compute_ke_atom.cpp:55)
WARNING: More than one compute ke/atom (src/compute_ke_atom.cpp:55)
Per MPI rank memory allocation (min/avg/max) = 6.412 | 6.413 | 6.416 Mbytes
Step Temp Press c_ape_C c_ake_C c_ape_Si c_ake_Si 
       0    1538.5521   -1.4863949   -5.2562201   0.18675489   -4.3983522   0.21122664 
     100     1487.427   -1.3096368   -5.2680947   0.18985929   -4.3955932   0.19443802 
     200    1415.7117    1.1014905   -5.2706979   0.17889767   -4.4024833   0.18696023 
     300    1440.4642    3.0196415   -5.2785873   0.17880049   -4.4112458   0.19361332 
     400    1417.3857    2.3533866    -5.285151   0.17315999   -4.4113675   0.19342419 
     500    1354.2191   -1.0922184   -5.2842308   0.16331995   -4.4120729   0.18703199 
     600    1301.8214  0.050788727     -5.28673    0.1610712   -4.4114195   0.17552392 
     700      1361.26    1.4894162   -5.2891883   0.16779388   -4.4196815   0.18420067 
     800    1275.0019    2.1684659   -5.2866777   0.14889419   -4.4283846   0.18120383 
     900    1325.0634    1.2325005   -5.2960583   0.15967013   -4.4332522   0.18314549 
    1000    1272.0084    1.6730765   -5.3036661   0.15165635   -4.4352605   0.17751305 
    1100    1216.9878    2.0484311    -5.300111   0.14442105    -4.438237   0.17054351 
    1200     1246.765    1.2061625    -5.300489   0.14928503   -4.4386121   0.17332041 
    1300    1231.3324   0.16805466   -5.3021126   0.15239908   -4.4421744    0.1659682 
    1400    1097.8341   -3.2456802    -5.302855   0.13297085   -4.4522745   0.15102317 
    1500    1152.5848   -2.2564369   -5.3099903   0.13575616     -4.44799   0.16259092 
    1600    1110.0323  -0.85570213   -5.3080421   0.13196909   -4.4552316    0.1553028 
    1700    1068.5003   0.86726571   -5.3130289   0.13364923   -4.4620861    0.1425477 
    1800    1081.8142    1.0619341   -5.3170184   0.13582752   -4.4636085    0.1437856 
    1900    1072.1115  -0.32520241   -5.3221365     0.133624   -4.4713907   0.14352993 
    2000    1017.2043 -0.0038031354   -5.3206592   0.12197533   -4.4770543   0.14122161 
    2100    1014.9669   0.81242467    -5.325224    0.1243706   -4.4803611   0.13811593 
    2200    967.49053     2.037055   -5.3287368   0.11568077   -4.4796228    0.1346694 
    2300    968.34359    1.4803804     -5.33003   0.11894112   -4.4801431   0.13147389 
    2400    939.22284   0.62582764   -5.3307351   0.11129734   -4.4878465   0.13178775 
    2500    878.29203  -0.73628286    -5.339475   0.10720601   -4.4914551   0.11995482 
    2600    898.05426   -3.1645891    -5.340814   0.10815918   -4.4992079   0.12418495 
    2700    868.73185   -1.7436311   -5.3422686   0.10852947   -4.4957111   0.11603579 
    2800    828.64341   -1.2089484   -5.3522938   0.10664157   -4.5014014    0.1074069 
    2900    847.08341  0.088812206   -5.3541773   0.10540906   -4.5068434   0.11358066 
    3000    772.61143   0.39986985    -5.352551  0.096086093   -4.5103188   0.10365373 
    3100    757.57959 -0.0024688099    -5.355694  0.093645101   -4.5170115   0.10223682 
    3200    736.17111  -0.41538555   -5.3549019  0.087324727   -4.5229032   0.10320311 
    3300    702.26297   0.51731433    -5.364005  0.087673526   -4.5320518   0.09386282 
    3400    672.02425  -0.63405773   -5.3635711  0.082665457   -4.5366842   0.09111498 
    3500    667.42076  -0.14482009   -5.3686137   0.08172964   -4.5356225  0.090878609 
    3600    603.99467   -1.1267241   -5.3693295  0.072012874     -4.53597  0.084288376 
    3700    576.87484   -1.6570097   -5.3732747  0.071245039   -4.5371586  0.077916461 
    3800    586.81871  -0.17126231   -5.3764136   0.07078618   -4.5420712  0.081029757 
    3900    566.50017   -2.5073993   -5.3771403  0.066265136   -4.5465218  0.080396368 
    4000    530.17009   -1.0565625   -5.3803821  0.064326546   -4.5470298  0.072815372 
    4100    526.89959   -2.5226491   -5.3861577  0.064950742   -4.5514109  0.071294782 
    4200    502.48507   -1.0098619    -5.386716  0.062215412   -4.5548361  0.067703476 
    4300     463.3652   0.29761729   -5.3875688   0.05525494   -4.5595814  0.064653886 
    4400     446.1756    0.6947226   -5.3909876  0.053218666   -4.5637854  0.062241198 
    4500    417.19883   0.69409741   -5.3952443  0.049362392   -4.5695785  0.058618702 
    4600    402.79789   0.44802196   -5.3989089  0.048403636   -4.5721371  0.055813368 
    4700    368.10985    1.5289339   -5.4006037  0.044319728   -4.5742596  0.050918174 
    4800    346.83925    1.9099342   -5.4018738  0.040000646   -4.5800402  0.049820877 
    4900    315.36802   0.19623174   -5.4102179  0.040779529   -4.5849346  0.040674239 
    5000    302.43228  -0.55465344   -5.4126048  0.038012298   -4.5889424  0.040154431 
Loop time of 22.6667 on 4 procs for 5000 steps with 1121 atoms

Performance: 1.906 ns/day, 12.593 hours/ns, 220.588 timesteps/s
99.7% CPU use with 4 MPI tasks x 1 OpenMP threads

MPI task timing breakdown:
Section |  min time  |  avg time  |  max time  |%varavg| %total
---------------------------------------------------------------
Pair    | 0.19683    | 5.7747     | 22.269     | 396.3 | 25.48
Neigh   | 0.0059206  | 0.011874   | 0.024522   |   6.8 |  0.05
Comm    | 0.039472   | 11.074     | 22.178     | 331.3 | 48.85
Output  | 0.12587    | 0.12601    | 0.12637    |   0.1 |  0.56
Modify  | 0.068912   | 5.6028     | 22.115     | 402.8 | 24.72
Other   |            | 0.07777    |            |       |  0.34

Nlocal:        280.250 ave        1099 max           0 min
Histogram: 3 0 0 0 0 0 0 0 0 1
Nghost:        5.75000 ave          12 max           2 min
Histogram: 1 0 1 1 0 0 0 0 0 1
Neighs:         0.00000 ave           0 max           0 min
Histogram: 4 0 0 0 0 0 0 0 0 0
FullNghs:      7937.00 ave       31706 max           0 min
Histogram: 3 0 0 0 0 0 0 0 0 1

Total # of neighbors = 31748
Ave neighs/atom = 28.321142
Neighbor list builds = 7
Dangerous builds = 0
write_data SiC.data1_$t_dt:${dt}
write_data SiC.data1_1500_dt:${dt}
write_data SiC.data1_1500_dt:0.0001
System init for write_data ...
WARNING: More than one compute ke/atom (src/compute_ke_atom.cpp:55)
WARNING: More than one compute ke/atom (src/compute_ke_atom.cpp:55)
clear
OMP_NUM_THREADS environment is not set. Defaulting to 1 thread. (src/comm.cpp:94)
  using 1 OpenMP thread(s) per MPI task
next t
jump SELF loop1
print "Done!!!"
Done!!!
Total wall time: 0:26:34
